[Molden Format]
[Title]
 Molden file created by orca_2mkl for BaseName=orca3

[Atoms] AU
Si   1  14         -5.7765262565         1.6826178887        -0.2021486205 
Si   2  14         -2.9392311262         1.9884728616        -3.3504764853 
H    3   1         -5.9308778770         2.7714396279         2.3803960255 
H    4   1         -8.0125276439         0.0180367422        -0.5448368921 
Si   5  14         -1.0176318248         1.3767311565         0.3904928739 
H    6   1          1.0076831180        -0.5594390990         0.5799901241 
H    7   1         -1.3666930320         2.4810456255         2.9476225915 
[GTO]
  1 0
s  13 1.0 
   513000.0000000000         0.3564397324
    76820.0000000000         0.6672509356
    17470.0000000000         1.1556753835
     4935.0000000000         1.8907947114
     1602.0000000000         2.9299753509
      574.1000000000         4.2537789742
      221.5000000000         5.5303565271
       90.5400000000         5.8840785771
       38.7400000000         4.2643222102
       16.9500000000         1.4624685266
        6.4520000000         0.0990009038
        2.8740000000        -0.0052680536
        1.2500000000         0.0015807527
s  13 1.0 
   513000.0000000000        -0.0963604859
    76820.0000000000        -0.1801406854
    17470.0000000000        -0.3129916111
     4935.0000000000        -0.5120139809
     1602.0000000000        -0.8030925601
      574.1000000000        -1.1859719390
      221.5000000000        -1.6345335463
       90.5400000000        -1.9413871804
       38.7400000000        -1.8603934093
       16.9500000000        -0.9216425243
        6.4520000000         0.4935528602
        2.8740000000         0.9090655416
        1.2500000000         0.3404300037
s  13 1.0 
   513000.0000000000         0.0489008220
    76820.0000000000         0.0913245846
    17470.0000000000         0.1589215858
     4935.0000000000         0.2595268225
     1602.0000000000         0.4083475174
      574.1000000000         0.6022661397
      221.5000000000         0.8367740062
       90.5400000000         0.9987756108
       38.7400000000         0.9865839944
       16.9500000000         0.5015002697
        6.4520000000        -0.2914390004
        2.8740000000        -0.6848836337
        1.2500000000        -0.4851384324
s   1 1.0 
        0.3599000000         0.3311665603
s   1 1.0 
        0.1699000000         0.1886058358
s   1 1.0 
        0.0706600000         0.0976765512
p   8 1.0 
     1122.0000000000         4.1797707474
      266.0000000000         5.8884307085
       85.9200000000         7.4431718505
       32.3300000000         8.0500109452
       13.3700000000         6.9709901728
        5.8000000000         4.3395518526
        2.5590000000         1.7635585870
        1.1240000000         0.3344379321
p   8 1.0 
     1122.0000000000        -4.0955165848
      266.0000000000        -5.7014527205
       85.9200000000        -7.3538897406
       32.3300000000        -7.9366305932
       13.3700000000        -7.1781387037
        5.8000000000        -4.4276895777
        2.5590000000        -2.0551782010
        1.1240000000        -0.1721058433
p   1 1.0 
        0.3988000000         0.4517352958
p   1 1.0 
        0.1533000000         0.1367312492
p   1 1.0 
        0.0572800000         0.0399432915
d   1 1.0 
        0.1200000000         0.0697488842
d   1 1.0 
        0.3020000000         0.3507375256
d   1 1.0 
        0.7600000000         1.7635747413
f   1 1.0 
        0.2120000000         0.1738824562
f   1 1.0 
        0.5410000000         1.4311789031
g   1 1.0 
        0.4610000000         0.7827931063

  2 0
s  13 1.0 
   513000.0000000000         0.3564397324
    76820.0000000000         0.6672509356
    17470.0000000000         1.1556753835
     4935.0000000000         1.8907947114
     1602.0000000000         2.9299753509
      574.1000000000         4.2537789742
      221.5000000000         5.5303565271
       90.5400000000         5.8840785771
       38.7400000000         4.2643222102
       16.9500000000         1.4624685266
        6.4520000000         0.0990009038
        2.8740000000        -0.0052680536
        1.2500000000         0.0015807527
s  13 1.0 
   513000.0000000000        -0.0963604859
    76820.0000000000        -0.1801406854
    17470.0000000000        -0.3129916111
     4935.0000000000        -0.5120139809
     1602.0000000000        -0.8030925601
      574.1000000000        -1.1859719390
      221.5000000000        -1.6345335463
       90.5400000000        -1.9413871804
       38.7400000000        -1.8603934093
       16.9500000000        -0.9216425243
        6.4520000000         0.4935528602
        2.8740000000         0.9090655416
        1.2500000000         0.3404300037
s  13 1.0 
   513000.0000000000         0.0489008220
    76820.0000000000         0.0913245846
    17470.0000000000         0.1589215858
     4935.0000000000         0.2595268225
     1602.0000000000         0.4083475174
      574.1000000000         0.6022661397
      221.5000000000         0.8367740062
       90.5400000000         0.9987756108
       38.7400000000         0.9865839944
       16.9500000000         0.5015002697
        6.4520000000        -0.2914390004
        2.8740000000        -0.6848836337
        1.2500000000        -0.4851384324
s   1 1.0 
        0.3599000000         0.3311665603
s   1 1.0 
        0.1699000000         0.1886058358
s   1 1.0 
        0.0706600000         0.0976765512
p   8 1.0 
     1122.0000000000         4.1797707474
      266.0000000000         5.8884307085
       85.9200000000         7.4431718505
       32.3300000000         8.0500109452
       13.3700000000         6.9709901728
        5.8000000000         4.3395518526
        2.5590000000         1.7635585870
        1.1240000000         0.3344379321
p   8 1.0 
     1122.0000000000        -4.0955165848
      266.0000000000        -5.7014527205
       85.9200000000        -7.3538897406
       32.3300000000        -7.9366305932
       13.3700000000        -7.1781387037
        5.8000000000        -4.4276895777
        2.5590000000        -2.0551782010
        1.1240000000        -0.1721058433
p   1 1.0 
        0.3988000000         0.4517352958
p   1 1.0 
        0.1533000000         0.1367312492
p   1 1.0 
        0.0572800000         0.0399432915
d   1 1.0 
        0.1200000000         0.0697488842
d   1 1.0 
        0.3020000000         0.3507375256
d   1 1.0 
        0.7600000000         1.7635747413
f   1 1.0 
        0.2120000000         0.1738824562
f   1 1.0 
        0.5410000000         1.4311789031
g   1 1.0 
        0.4610000000         0.7827931063

  3 0
s   3 1.0 
       82.6400000000         0.4483321190
       12.4100000000         0.8272091211
        2.8240000000         1.3425357337
s   1 1.0 
        0.7977000000         0.6015750091
s   1 1.0 
        0.2581000000         0.2580780661
s   1 1.0 
        0.0898900000         0.1170020921
p   1 1.0 
        2.2920000000         4.0198361784
p   1 1.0 
        0.8380000000         1.1428654696
p   1 1.0 
        0.2920000000         0.3059628180
d   1 1.0 
        2.0620000000        10.1152178423
d   1 1.0 
        0.6620000000         1.3850694971
f   1 1.0 
        1.3970000000        12.0973986675

  4 0
s   3 1.0 
       82.6400000000         0.4483321190
       12.4100000000         0.8272091211
        2.8240000000         1.3425357337
s   1 1.0 
        0.7977000000         0.6015750091
s   1 1.0 
        0.2581000000         0.2580780661
s   1 1.0 
        0.0898900000         0.1170020921
p   1 1.0 
        2.2920000000         4.0198361784
p   1 1.0 
        0.8380000000         1.1428654696
p   1 1.0 
        0.2920000000         0.3059628180
d   1 1.0 
        2.0620000000        10.1152178423
d   1 1.0 
        0.6620000000         1.3850694971
f   1 1.0 
        1.3970000000        12.0973986675

  5 0
s  13 1.0 
   513000.0000000000         0.3564397324
    76820.0000000000         0.6672509356
    17470.0000000000         1.1556753835
     4935.0000000000         1.8907947114
     1602.0000000000         2.9299753509
      574.1000000000         4.2537789742
      221.5000000000         5.5303565271
       90.5400000000         5.8840785771
       38.7400000000         4.2643222102
       16.9500000000         1.4624685266
        6.4520000000         0.0990009038
        2.8740000000        -0.0052680536
        1.2500000000         0.0015807527
s  13 1.0 
   513000.0000000000        -0.0963604859
    76820.0000000000        -0.1801406854
    17470.0000000000        -0.3129916111
     4935.0000000000        -0.5120139809
     1602.0000000000        -0.8030925601
      574.1000000000        -1.1859719390
      221.5000000000        -1.6345335463
       90.5400000000        -1.9413871804
       38.7400000000        -1.8603934093
       16.9500000000        -0.9216425243
        6.4520000000         0.4935528602
        2.8740000000         0.9090655416
        1.2500000000         0.3404300037
s  13 1.0 
   513000.0000000000         0.0489008220
    76820.0000000000         0.0913245846
    17470.0000000000         0.1589215858
     4935.0000000000         0.2595268225
     1602.0000000000         0.4083475174
      574.1000000000         0.6022661397
      221.5000000000         0.8367740062
       90.5400000000         0.9987756108
       38.7400000000         0.9865839944
       16.9500000000         0.5015002697
        6.4520000000        -0.2914390004
        2.8740000000        -0.6848836337
        1.2500000000        -0.4851384324
s   1 1.0 
        0.3599000000         0.3311665603
s   1 1.0 
        0.1699000000         0.1886058358
s   1 1.0 
        0.0706600000         0.0976765512
p   8 1.0 
     1122.0000000000         4.1797707474
      266.0000000000         5.8884307085
       85.9200000000         7.4431718505
       32.3300000000         8.0500109452
       13.3700000000         6.9709901728
        5.8000000000         4.3395518526
        2.5590000000         1.7635585870
        1.1240000000         0.3344379321
p   8 1.0 
     1122.0000000000        -4.0955165848
      266.0000000000        -5.7014527205
       85.9200000000        -7.3538897406
       32.3300000000        -7.9366305932
       13.3700000000        -7.1781387037
        5.8000000000        -4.4276895777
        2.5590000000        -2.0551782010
        1.1240000000        -0.1721058433
p   1 1.0 
        0.3988000000         0.4517352958
p   1 1.0 
        0.1533000000         0.1367312492
p   1 1.0 
        0.0572800000         0.0399432915
d   1 1.0 
        0.1200000000         0.0697488842
d   1 1.0 
        0.3020000000         0.3507375256
d   1 1.0 
        0.7600000000         1.7635747413
f   1 1.0 
        0.2120000000         0.1738824562
f   1 1.0 
        0.5410000000         1.4311789031
g   1 1.0 
        0.4610000000         0.7827931063

  6 0
s   3 1.0 
       82.6400000000         0.4483321190
       12.4100000000         0.8272091211
        2.8240000000         1.3425357337
s   1 1.0 
        0.7977000000         0.6015750091
s   1 1.0 
        0.2581000000         0.2580780661
s   1 1.0 
        0.0898900000         0.1170020921
p   1 1.0 
        2.2920000000         4.0198361784
p   1 1.0 
        0.8380000000         1.1428654696
p   1 1.0 
        0.2920000000         0.3059628180
d   1 1.0 
        2.0620000000        10.1152178423
d   1 1.0 
        0.6620000000         1.3850694971
f   1 1.0 
        1.3970000000        12.0973986675

  7 0
s   3 1.0 
       82.6400000000         0.4483321190
       12.4100000000         0.8272091211
        2.8240000000         1.3425357337
s   1 1.0 
        0.7977000000         0.6015750091
s   1 1.0 
        0.2581000000         0.2580780661
s   1 1.0 
        0.0898900000         0.1170020921
p   1 1.0 
        2.2920000000         4.0198361784
p   1 1.0 
        0.8380000000         1.1428654696
p   1 1.0 
        0.2920000000         0.3059628180
d   1 1.0 
        2.0620000000        10.1152178423
d   1 1.0 
        0.6620000000         1.3850694971
f   1 1.0 
        1.3970000000        12.0973986675

[5D]
[7F]
[9G]
[MO]
 Sym=     1a
 Ene= -6.60242791704665E+01
 Spin= Alpha
 Occup= 2.000000
  1      -0.010254451671
  2      -0.000534479892
  3      -0.000637107686
  4      -0.000759597887
  5       0.001204917931
  6       0.000809888869
  7       0.000119518500
  8      -0.000050466928
  9       0.000028801276
 10       0.000111651479
 11      -0.000048191286
 12       0.000027592071
 13      -0.000186594016
 14       0.000023178532
 15      -0.000037132691
 16       0.001047112245
 17       0.000002710438
 18       0.000395290007
 19       0.000172959640
 20      -0.000007333941
 21       0.000046397572
 22      -0.000154252409
 23       0.000164484522
 24       0.000045716233
 25       0.000320469091
 26       0.000031744875
 27      -0.000066209003
 28       0.000073246818
 29       0.000044938063
 30       0.000242421400
 31      -0.000024047831
 32       0.000021503682
 33      -0.000025270183
 34      -0.000006984840
 35      -0.000067561390
 36       0.000010688114
 37      -0.000039708298
 38      -0.000046479773
 39       0.000076953063
 40       0.000072828579
 41       0.000030171211
 42      -0.000154038999
 43       0.000048495615
 44       0.000009165064
 45      -0.000018495399
 46       0.000007954851
 47      -0.000012164711
 48      -0.000004869698
 49      -0.000011524410
 50       0.000010453416
 51       0.000025640291
 52      -0.000006742844
 53       0.000015900514
 54      -0.000018286176
 55       0.000018378737
 56      -0.000014793921
 57       0.000005738275
 58      -0.000021306341
 59       0.000014535139
 60      -0.000001901043
 61      -0.000066518939
 62      -0.000088192535
 63      -0.000610277540
 64       0.001723376524
 65       0.001117119661
 66      -0.000529531294
 67       0.000220633290
 68      -0.000972540600
 69      -0.000508185382
 70       0.000211744075
 71      -0.000933683145
 72       0.000080170909
 73      -0.000047540956
 74       0.000115877358
 75       0.000604348593
 76      -0.000104515260
 77       0.001349985605
 78       0.000106387867
 79      -0.000021588593
 80       0.000250537648
 81       0.000265990591
 82       0.000238429126
 83      -0.000025130227
 84       0.000053623228
 85       0.000026397055
 86       0.000305132585
 87       0.000278750078
 88      -0.000053742272
 89       0.000048781885
 90      -0.000015320355
 91      -0.000031221378
 92      -0.000023600118
 93      -0.000002070939
 94      -0.000004242935
 95      -0.000008425993
 96       0.000047188695
 97       0.000093640252
 98      -0.000001953165
 99       0.000023440308
100       0.000035559490
101      -0.000022729979
102      -0.000013202748
103       0.000040024213
104       0.000046744962
105      -0.000015497065
106       0.000012361790
107      -0.000014925216
108       0.000000429824
109       0.000001890253
110       0.000001217419
111       0.000001547093
112      -0.000003832559
113      -0.000009236920
114       0.000015237248
115      -0.000004329495
116      -0.000018974125
117      -0.000005194790
118      -0.000010355396
119       0.000001917846
120       0.000004248283
121      -0.000297209458
122      -0.000048075568
123       0.000004386375
124      -0.000004219903
125      -0.000001701849
126      -0.000010519863
127       0.000014623892
128       0.000009728434
129      -0.000081362891
130       0.000030214569
131       0.000104015824
132      -0.000000354066
133      -0.000004267620
134      -0.000000088378
135       0.000000021026
136      -0.000000954807
137      -0.000000217031
138       0.000020733235
139      -0.000006605551
140      -0.000003894338
141       0.000008179738
142      -0.000002576441
143      -0.000000628066
144      -0.000000804739
145       0.000001226285
146       0.000000075042
147      -0.000001750935
148      -0.000001283346
149       0.000002975012
150      -0.000009614055
151      -0.000065791790
152      -0.000050706792
153       0.000006629183
154       0.000000292509
155       0.000003163422
156      -0.000021793726
157      -0.000003996174
158      -0.000008627110
159       0.000009783455
160       0.000003120157
161      -0.000024821402
162       0.000001062003
163       0.000001571155
164       0.000002144732
165      -0.000000255064
166       0.000000737074
167      -0.000001814417
168      -0.000006207501
169      -0.000007035202
170       0.000007765972
171      -0.000003763296
172      -0.000001351401
173      -0.000001518305
174       0.000001326317
175       0.000000079198
176       0.000002472387
177      -0.000003297026
178      -0.000005586037
179       1.002544681716
180       0.018091428738
181       0.020126134431
182       0.003285103603
183      -0.000075143849
184      -0.001546326239
185      -0.001036604967
186       0.001038522251
187      -0.002876515225
188      -0.000976371241
189       0.001005824531
190      -0.002756326220
191       0.000044627910
192      -0.000193624234
193       0.000528766781
194       0.002706351463
195      -0.000833427026
196       0.002613713741
197       0.000431104454
198      -0.000099212607
199       0.000419115156
200      -0.000146244281
201      -0.000607721792
202       0.000334107929
203      -0.000503251404
204       0.000047530082
205       0.000037661048
206      -0.000346416950
207       0.000496518156
208      -0.000332326932
209      -0.000737466039
210       0.000056786113
211       0.000081879736
212       0.000013318109
213       0.000091404746
214      -0.000087045544
215       0.000149586827
216       0.000092268302
217       0.000006749755
218       0.000145198090
219      -0.000147060006
220      -0.000168203615
221       0.000195084414
222       0.000117129377
223      -0.000205436919
224       0.000353630997
225      -0.000078384631
226      -0.000089417752
227       0.000161540333
228       0.000177430089
229       0.000073070785
230      -0.000097280806
231       0.000143991264
232      -0.000055412143
233       0.000077370252
234       0.000027525566
235       0.000017831166
236       0.000135299149
237       0.000001243788
238       0.000042747536
239       0.000062360562
240      -0.002169189244
241      -0.000244106788
242      -0.000087073954
243       0.000084688899
244      -0.000001101902
245       0.000284259629
246      -0.000273912629
247       0.000001269540
248       0.000784524905
249      -0.000815241551
250       0.000073275702
251      -0.000017248148
252       0.000005315260
253       0.000000688466
254      -0.000002153447
255      -0.000040826031
256       0.000210264472
257      -0.000034507356
258       0.000017749316
259      -0.000016641207
260       0.000394616040
261      -0.000010610814
262      -0.000043141704
263       0.000036757841
264      -0.000001374815
265      -0.000014439915
266       0.000037775185
267       0.000060299584
268       0.000043058591
269       0.000053797658
270      -0.001959297032
271      -0.000283330074
272       0.000018155302
273      -0.000048675138
274      -0.000110086529
275      -0.000055353476
276       0.000156953022
277       0.000353512659
278      -0.000176905109
279       0.000436221573
280       0.000892127803
281       0.000030561330
282      -0.000009965516
283       0.000026302722
284      -0.000007526368
285      -0.000012830177
286      -0.000320494068
287       0.000093080212
288      -0.000271692903
289       0.000061779911
290       0.000057850631
291       0.000052364233
292      -0.000023231628
293       0.000068210273
294      -0.000022151904
295      -0.000005161921
296       0.000004114631
297       0.000005995483
 Sym=     1a
 Ene= -6.60242358691922E+01
 Spin= Alpha
 Occup= 2.000000
  1       1.002543755866
  2       0.018084120513
  3       0.020116854421
  4       0.003263928151
  5      -0.000033116392
  6      -0.001531428786
  7       0.001846817997
  8       0.000881456748
  9      -0.002516768993
 10       0.001754786958
 11       0.000857442549
 12      -0.002415655684
 13      -0.000201951369
 14      -0.000182242190
 15       0.000496988854
 16      -0.003331987254
 17      -0.000448248425
 18       0.001871310654
 19      -0.000528438386
 20      -0.000037720573
 21       0.000301183665
 22       0.000097990548
 23       0.000516059107
 24       0.000259276958
 25      -0.000643847549
 26       0.000030888489
 27       0.000175681671
 28       0.000301273181
 29       0.000631937180
 30      -0.000227429578
 31       0.000671750414
 32       0.000024472610
 33      -0.000067889218
 34       0.000040428737
 35       0.000127188770
 36       0.000051568068
 37       0.000087726596
 38      -0.000101594113
 39       0.000060011723
 40       0.000144045770
 41       0.000043608727
 42       0.000274983961
 43       0.000139586363
 44       0.000217372005
 45       0.000109806368
 46       0.000332885007
 47      -0.000102290856
 48      -0.000088840555
 49      -0.000108939070
 50       0.000229722679
 51       0.000112772314
 52      -0.000009224705
 53       0.000084408076
 54      -0.000097897674
 55      -0.000114958335
 56      -0.000020729325
 57      -0.000034519636
 58       0.000124053389
 59      -0.000066612309
 60      -0.000001539228
 61      -0.000067143559
 62      -0.000089086507
 63      -0.000621429488
 64       0.001758314800
 65       0.001139164043
 66       0.000762948901
 67       0.000140292630
 68      -0.000831633161
 69       0.000732266267
 70       0.000134631674
 71      -0.000798456463
 72      -0.000110179683
 73      -0.000036102365
 74       0.000094942194
 75      -0.000910097010
 76      -0.000008616202
 77       0.001187262428
 78      -0.000163834399
 79      -0.000004490411
 80       0.000221844085
 81       0.000152411659
 82      -0.000303407677
 83       0.000001663929
 84       0.000114262042
 85      -0.000044150024
 86       0.000171466237
 87      -0.000356482847
 88      -0.000010320157
 89       0.000132870829
 90       0.000000020617
 91      -0.000019685534
 92       0.000031856656
 93      -0.000003433366
 94      -0.000008810510
 95       0.000010591106
 96      -0.000009559855
 97      -0.000089512315
 98      -0.000003685999
 99       0.000044540869
100      -0.000035654777
101       0.000023299681
102      -0.000033256103
103       0.000009177872
104      -0.000052523895
105      -0.000003613390
106       0.000035648728
107       0.000010929546
108       0.000008287282
109       0.000004823361
110      -0.000002230218
111      -0.000007394522
112      -0.000007497271
113      -0.000008173784
114      -0.000000477418
115      -0.000008306882
116      -0.000017152931
117       0.000002927950
118       0.000017700761
119       0.000043049065
120       0.000054198651
121      -0.001970850261
122      -0.000285459550
123       0.000003522258
124      -0.000047669703
125      -0.000112050121
126      -0.000013882007
127       0.000154118697
128       0.000359138668
129       0.000002773618
130       0.000424932931
131       0.000919093956
132       0.000032303309
133      -0.000002391031
134       0.000028321228
135      -0.000005722048
136       0.000007832392
137      -0.000334624398
138       0.000031767076
139      -0.000275032976
140       0.000060748897
141      -0.000005694476
142       0.000056194741
143      -0.000011701671
144       0.000064747135
145      -0.000023845803
146      -0.000017189645
147      -0.000008893475
148       0.000006460431
149       0.000042707176
150       0.000063249369
151      -0.002181672884
152      -0.000247181180
153       0.000094898280
154       0.000073251497
155       0.000021857521
156      -0.000308692807
157      -0.000236684611
158      -0.000073369441
159      -0.000878450052
160      -0.000711239790
161      -0.000135195863
162      -0.000017884024
163       0.000003918133
164       0.000010840496
165       0.000008442530
166       0.000038594015
167       0.000202995294
168      -0.000076697225
169      -0.000076089720
170      -0.000110469318
171      -0.000370802941
172       0.000016853194
173       0.000043409605
174       0.000030251895
175      -0.000012038324
176      -0.000017988624
177      -0.000014084821
178       0.000069382169
179       0.010164302201
180      -0.000165385515
181      -0.000226405208
182      -0.000691059382
183       0.001200360143
184       0.000778991469
185      -0.000149043453
186      -0.000017015692
187      -0.000061235803
188      -0.000139698896
189      -0.000016276402
190      -0.000057946117
191       0.000192175856
192      -0.000004433189
193       0.000021549838
194      -0.001051269008
195       0.000126553331
196       0.000178265690
197      -0.000170377196
198       0.000013204103
199       0.000009595265
200      -0.000192601922
201      -0.000012166920
202       0.000042970173
203       0.000310514439
204      -0.000123568306
205      -0.000075096800
206       0.000019486353
207       0.000055136784
208       0.000238779193
209      -0.000064587295
210       0.000027420466
211      -0.000002333812
212      -0.000008195482
213      -0.000068721453
214       0.000007355345
215       0.000005113030
216       0.000081484596
217       0.000047157783
218      -0.000014875284
219      -0.000068153401
220       0.000162303278
221      -0.000027383995
222       0.000019318245
223       0.000000868057
224       0.000015078982
225      -0.000021051936
226       0.000001669112
227       0.000013201675
228       0.000011014327
229       0.000020842765
230      -0.000024418542
231       0.000009736840
232      -0.000022776629
233      -0.000015926606
234      -0.000004838793
235      -0.000007540169
236      -0.000025008172
237      -0.000000266300
238       0.000003770527
239      -0.000008249076
240      -0.000104752718
241      -0.000054773325
242      -0.000008613751
243       0.000002918171
244       0.000001078569
245       0.000027588040
246      -0.000012390281
247      -0.000002341211
248       0.000011876219
249      -0.000011856886
250      -0.000025320759
251      -0.000000037016
252      -0.000001384439
253       0.000002107196
254      -0.000000246997
255      -0.000002014712
256       0.000005425641
257       0.000006226158
258      -0.000006508953
259       0.000007184206
260       0.000011391658
261      -0.000000523637
262       0.000000932454
263       0.000001209302
264      -0.000001634663
265      -0.000000956391
266       0.000001437224
267      -0.000005749349
268       0.000002813820
269       0.000005344848
270      -0.000337170046
271      -0.000052650953
272      -0.000003954368
273      -0.000004742150
274      -0.000005037489
275       0.000008487800
276       0.000016688039
277       0.000019506338
278       0.000051592218
279       0.000030777138
280       0.000139277945
281       0.000002061173
282       0.000003592478
283       0.000000218179
284      -0.000000970343
285       0.000000822474
286      -0.000015719585
287      -0.000017549545
288      -0.000011500957
289       0.000000940229
290      -0.000004786100
291      -0.000000473891
292       0.000001250098
293       0.000000582588
294      -0.000000395492
295       0.000000474753
296       0.000001308153
297      -0.000001784549
 Sym=     1a
 Ene= -6.60211587713453E+01
 Spin= Alpha
 Occup= 2.000000
  1      -0.000017315039
  2      -0.000093626406
  3      -0.000121514755
  4      -0.000555704643
  5       0.001308648987
  6       0.000925435862
  7      -0.000532139668
  8       0.000061043811
  9       0.000403308554
 10      -0.000511453260
 11       0.000058440605
 12       0.000386795991
 13       0.000020073855
 14      -0.000025905517
 15       0.000018274596
 16       0.001158764761
 17       0.000048907065
 18      -0.001577650216
 19       0.000216989936
 20       0.000062282585
 21      -0.000146074038
 22       0.000210317541
 23      -0.000425249857
 24      -0.000095796872
 25       0.000167942758
 26      -0.000048097111
 27       0.000060700929
 28      -0.000414355310
 29      -0.000146934110
 30       0.000196855819
 31       0.000026969967
 32      -0.000013939553
 33       0.000057771050
 34       0.000024092471
 35      -0.000020375699
 36       0.000000971387
 37      -0.000092488402
 38       0.000158262040
 39      -0.000083392115
 40      -0.000066508137
 41       0.000026847874
 42       0.000022453255
 43      -0.000033975653
 44       0.000014023918
 45       0.000034723019
 46       0.000012468219
 47      -0.000033543801
 48      -0.000002058485
 49      -0.000019688793
 50       0.000007887120
 51       0.000013620665
 52       0.000017329219
 53       0.000005375706
 54      -0.000003144919
 55      -0.000012602950
 56      -0.000018557863
 57       0.000009276633
 58       0.000001589273
 59      -0.000007877650
 60       1.002366309335
 61       0.016354325717
 62       0.018067636970
 63       0.003990902190
 64      -0.004948418605
 65      -0.001871619333
 66       0.000151980577
 67       0.000207068367
 68      -0.001080640066
 69       0.000151351084
 70       0.000177702469
 71      -0.001092025405
 72      -0.000077205133
 73      -0.000112471139
 74       0.000559275373
 75       0.000409335721
 76       0.000533339097
 77      -0.003014637360
 78       0.000052991406
 79       0.000025239722
 80      -0.000421670075
 81      -0.000527381978
 82       0.000082816798
 83       0.000222700609
 84      -0.000367132563
 85       0.000018915469
 86      -0.000421460718
 87       0.000066072315
 88       0.000176705285
 89      -0.000298231413
 90       0.000016504547
 91       0.000130164143
 92      -0.000020670556
 93      -0.000052840724
 94       0.000089375223
 95      -0.000005462860
 96      -0.000039727389
 97      -0.000050117537
 98       0.000109099018
 99      -0.000334520845
100       0.000035964130
101      -0.000068084787
102      -0.000077718124
103      -0.000005563995
104      -0.000000411388
105      -0.000000267133
106      -0.000010932680
107       0.000001691374
108      -0.000002219550
109      -0.000002453450
110       0.000022121495
111      -0.000034093344