[Molden Format]
[Title]
 Molden file created by orca_2mkl for BaseName=orca2

[Atoms] AU
Si   1  14         -3.0936039115         1.5254870173        -0.6653525855 
Si   2  14         -3.9484042987        -2.2468399746         1.9003631659 
H    3   1         -4.3202612060         3.7803191418         0.4586455430 
H    4   1         -4.0034467654         1.1362442016        -3.2870333121 
Si   5  14         -0.0276490726        -1.1494378143         1.4883398503 
Si   6  14          1.3659189013         2.2111582747        -0.7846155039 
H    7   1          2.4059116376         4.4418120955         0.5449353332 
H    8   1          2.7053343841         1.7722159444        -3.2008622524 
[GTO]
  1 0
s  13 1.0 
   513000.0000000000         0.3564397324
    76820.0000000000         0.6672509356
    17470.0000000000         1.1556753835
     4935.0000000000         1.8907947114
     1602.0000000000         2.9299753509
      574.1000000000         4.2537789742
      221.5000000000         5.5303565271
       90.5400000000         5.8840785771
       38.7400000000         4.2643222102
       16.9500000000         1.4624685266
        6.4520000000         0.0990009038
        2.8740000000        -0.0052680536
        1.2500000000         0.0015807527
s  13 1.0 
   513000.0000000000        -0.0963604859
    76820.0000000000        -0.1801406854
    17470.0000000000        -0.3129916111
     4935.0000000000        -0.5120139809
     1602.0000000000        -0.8030925601
      574.1000000000        -1.1859719390
      221.5000000000        -1.6345335463
       90.5400000000        -1.9413871804
       38.7400000000        -1.8603934093
       16.9500000000        -0.9216425243
        6.4520000000         0.4935528602
        2.8740000000         0.9090655416
        1.2500000000         0.3404300037
s  13 1.0 
   513000.0000000000         0.0489008220
    76820.0000000000         0.0913245846
    17470.0000000000         0.1589215858
     4935.0000000000         0.2595268225
     1602.0000000000         0.4083475174
      574.1000000000         0.6022661397
      221.5000000000         0.8367740062
       90.5400000000         0.9987756108
       38.7400000000         0.9865839944
       16.9500000000         0.5015002697
        6.4520000000        -0.2914390004
        2.8740000000        -0.6848836337
        1.2500000000        -0.4851384324
s   1 1.0 
        0.3599000000         0.3311665603
s   1 1.0 
        0.1699000000         0.1886058358
s   1 1.0 
        0.0706600000         0.0976765512
p   8 1.0 
     1122.0000000000         4.1797707474
      266.0000000000         5.8884307085
       85.9200000000         7.4431718505
       32.3300000000         8.0500109452
       13.3700000000         6.9709901728
        5.8000000000         4.3395518526
        2.5590000000         1.7635585870
        1.1240000000         0.3344379321
p   8 1.0 
     1122.0000000000        -4.0955165848
      266.0000000000        -5.7014527205
       85.9200000000        -7.3538897406
       32.3300000000        -7.9366305932
       13.3700000000        -7.1781387037
        5.8000000000        -4.4276895777
        2.5590000000        -2.0551782010
        1.1240000000        -0.1721058433
p   1 1.0 
        0.3988000000         0.4517352958
p   1 1.0 
        0.1533000000         0.1367312492
p   1 1.0 
        0.0572800000         0.0399432915
d   1 1.0 
        0.1200000000         0.0697488842
d   1 1.0 
        0.3020000000         0.3507375256
d   1 1.0 
        0.7600000000         1.7635747413
f   1 1.0 
        0.2120000000         0.1738824562
f   1 1.0 
        0.5410000000         1.4311789031
g   1 1.0 
        0.4610000000         0.7827931063

  2 0
s  13 1.0 
   513000.0000000000         0.3564397324
    76820.0000000000         0.6672509356
    17470.0000000000         1.1556753835
     4935.0000000000         1.8907947114
     1602.0000000000         2.9299753509
      574.1000000000         4.2537789742
      221.5000000000         5.5303565271
       90.5400000000         5.8840785771
       38.7400000000         4.2643222102
       16.9500000000         1.4624685266
        6.4520000000         0.0990009038
        2.8740000000        -0.0052680536
        1.2500000000         0.0015807527
s  13 1.0 
   513000.0000000000        -0.0963604859
    76820.0000000000        -0.1801406854
    17470.0000000000        -0.3129916111
     4935.0000000000        -0.5120139809
     1602.0000000000        -0.8030925601
      574.1000000000        -1.1859719390
      221.5000000000        -1.6345335463
       90.5400000000        -1.9413871804
       38.7400000000        -1.8603934093
       16.9500000000        -0.9216425243
        6.4520000000         0.4935528602
        2.8740000000         0.9090655416
        1.2500000000         0.3404300037
s  13 1.0 
   513000.0000000000         0.0489008220
    76820.0000000000         0.0913245846
    17470.0000000000         0.1589215858
     4935.0000000000         0.2595268225
     1602.0000000000         0.4083475174
      574.1000000000         0.6022661397
      221.5000000000         0.8367740062
       90.5400000000         0.9987756108
       38.7400000000         0.9865839944
       16.9500000000         0.5015002697
        6.4520000000        -0.2914390004
        2.8740000000        -0.6848836337
        1.2500000000        -0.4851384324
s   1 1.0 
        0.3599000000         0.3311665603
s   1 1.0 
        0.1699000000         0.1886058358
s   1 1.0 
        0.0706600000         0.0976765512
p   8 1.0 
     1122.0000000000         4.1797707474
      266.0000000000         5.8884307085
       85.9200000000         7.4431718505
       32.3300000000         8.0500109452
       13.3700000000         6.9709901728
        5.8000000000         4.3395518526
        2.5590000000         1.7635585870
        1.1240000000         0.3344379321
p   8 1.0 
     1122.0000000000        -4.0955165848
      266.0000000000        -5.7014527205
       85.9200000000        -7.3538897406
       32.3300000000        -7.9366305932
       13.3700000000        -7.1781387037
        5.8000000000        -4.4276895777
        2.5590000000        -2.0551782010
        1.1240000000        -0.1721058433
p   1 1.0 
        0.3988000000         0.4517352958
p   1 1.0 
        0.1533000000         0.1367312492
p   1 1.0 
        0.0572800000         0.0399432915
d   1 1.0 
        0.1200000000         0.0697488842
d   1 1.0 
        0.3020000000         0.3507375256
d   1 1.0 
        0.7600000000         1.7635747413
f   1 1.0 
        0.2120000000         0.1738824562
f   1 1.0 
        0.5410000000         1.4311789031
g   1 1.0 
        0.4610000000         0.7827931063

  3 0
s   3 1.0 
       82.6400000000         0.4483321190
       12.4100000000         0.8272091211
        2.8240000000         1.3425357337
s   1 1.0 
        0.7977000000         0.6015750091
s   1 1.0 
        0.2581000000         0.2580780661
s   1 1.0 
        0.0898900000         0.1170020921
p   1 1.0 
        2.2920000000         4.0198361784
p   1 1.0 
        0.8380000000         1.1428654696
p   1 1.0 
        0.2920000000         0.3059628180
d   1 1.0 
        2.0620000000        10.1152178423
d   1 1.0 
        0.6620000000         1.3850694971
f   1 1.0 
        1.3970000000        12.0973986675

  4 0
s   3 1.0 
       82.6400000000         0.4483321190
       12.4100000000         0.8272091211
        2.8240000000         1.3425357337
s   1 1.0 
        0.7977000000         0.6015750091
s   1 1.0 
        0.2581000000         0.2580780661
s   1 1.0 
        0.0898900000         0.1170020921
p   1 1.0 
        2.2920000000         4.0198361784
p   1 1.0 
        0.8380000000         1.1428654696
p   1 1.0 
        0.2920000000         0.3059628180
d   1 1.0 
        2.0620000000        10.1152178423
d   1 1.0 
        0.6620000000         1.3850694971
f   1 1.0 
        1.3970000000        12.0973986675

  5 0
s  13 1.0 
   513000.0000000000         0.3564397324
    76820.0000000000         0.6672509356
    17470.0000000000         1.1556753835
     4935.0000000000         1.8907947114
     1602.0000000000         2.9299753509
      574.1000000000         4.2537789742
      221.5000000000         5.5303565271
       90.5400000000         5.8840785771
       38.7400000000         4.2643222102
       16.9500000000         1.4624685266
        6.4520000000         0.0990009038
        2.8740000000        -0.0052680536
        1.2500000000         0.0015807527
s  13 1.0 
   513000.0000000000        -0.0963604859
    76820.0000000000        -0.1801406854
    17470.0000000000        -0.3129916111
     4935.0000000000        -0.5120139809
     1602.0000000000        -0.8030925601
      574.1000000000        -1.1859719390
      221.5000000000        -1.6345335463
       90.5400000000        -1.9413871804
       38.7400000000        -1.8603934093
       16.9500000000        -0.9216425243
        6.4520000000         0.4935528602
        2.8740000000         0.9090655416
        1.2500000000         0.3404300037
s  13 1.0 
   513000.0000000000         0.0489008220
    76820.0000000000         0.0913245846
    17470.0000000000         0.1589215858
     4935.0000000000         0.2595268225
     1602.0000000000         0.4083475174
      574.1000000000         0.6022661397
      221.5000000000         0.8367740062
       90.5400000000         0.9987756108
       38.7400000000         0.9865839944
       16.9500000000         0.5015002697
        6.4520000000        -0.2914390004
        2.8740000000        -0.6848836337
        1.2500000000        -0.4851384324
s   1 1.0 
        0.3599000000         0.3311665603
s   1 1.0 
        0.1699000000         0.1886058358
s   1 1.0 
        0.0706600000         0.0976765512
p   8 1.0 
     1122.0000000000         4.1797707474
      266.0000000000         5.8884307085
       85.9200000000         7.4431718505
       32.3300000000         8.0500109452
       13.3700000000         6.9709901728
        5.8000000000         4.3395518526
        2.5590000000         1.7635585870
        1.1240000000         0.3344379321
p   8 1.0 
     1122.0000000000        -4.0955165848
      266.0000000000        -5.7014527205
       85.9200000000        -7.3538897406
       32.3300000000        -7.9366305932
       13.3700000000        -7.1781387037
        5.8000000000        -4.4276895777
        2.5590000000        -2.0551782010
        1.1240000000        -0.1721058433
p   1 1.0 
        0.3988000000         0.4517352958
p   1 1.0 
        0.1533000000         0.1367312492
p   1 1.0 
        0.0572800000         0.0399432915
d   1 1.0 
        0.1200000000         0.0697488842
d   1 1.0 
        0.3020000000         0.3507375256
d   1 1.0 
        0.7600000000         1.7635747413
f   1 1.0 
        0.2120000000         0.1738824562
f   1 1.0 
        0.5410000000         1.4311789031
g   1 1.0 
        0.4610000000         0.7827931063

  6 0
s  13 1.0 
   513000.0000000000         0.3564397324
    76820.0000000000         0.6672509356
    17470.0000000000         1.1556753835
     4935.0000000000         1.8907947114
     1602.0000000000         2.9299753509
      574.1000000000         4.2537789742
      221.5000000000         5.5303565271
       90.5400000000         5.8840785771
       38.7400000000         4.2643222102
       16.9500000000         1.4624685266
        6.4520000000         0.0990009038
        2.8740000000        -0.0052680536
        1.2500000000         0.0015807527
s  13 1.0 
   513000.0000000000        -0.0963604859
    76820.0000000000        -0.1801406854
    17470.0000000000        -0.3129916111
     4935.0000000000        -0.5120139809
     1602.0000000000        -0.8030925601
      574.1000000000        -1.1859719390
      221.5000000000        -1.6345335463
       90.5400000000        -1.9413871804
       38.7400000000        -1.8603934093
       16.9500000000        -0.9216425243
        6.4520000000         0.4935528602
        2.8740000000         0.9090655416
        1.2500000000         0.3404300037
s  13 1.0 
   513000.0000000000         0.0489008220
    76820.0000000000         0.0913245846
    17470.0000000000         0.1589215858
     4935.0000000000         0.2595268225
     1602.0000000000         0.4083475174
      574.1000000000         0.6022661397
      221.5000000000         0.8367740062
       90.5400000000         0.9987756108
       38.7400000000         0.9865839944
       16.9500000000         0.5015002697
        6.4520000000        -0.2914390004
        2.8740000000        -0.6848836337
        1.2500000000        -0.4851384324
s   1 1.0 
        0.3599000000         0.3311665603
s   1 1.0 
        0.1699000000         0.1886058358
s   1 1.0 
        0.0706600000         0.0976765512
p   8 1.0 
     1122.0000000000         4.1797707474
      266.0000000000         5.8884307085
       85.9200000000         7.4431718505
       32.3300000000         8.0500109452
       13.3700000000         6.9709901728
        5.8000000000         4.3395518526
        2.5590000000         1.7635585870
        1.1240000000         0.3344379321
p   8 1.0 
     1122.0000000000        -4.0955165848
      266.0000000000        -5.7014527205
       85.9200000000        -7.3538897406
       32.3300000000        -7.9366305932
       13.3700000000        -7.1781387037
        5.8000000000        -4.4276895777
        2.5590000000        -2.0551782010
        1.1240000000        -0.1721058433
p   1 1.0 
        0.3988000000         0.4517352958
p   1 1.0 
        0.1533000000         0.1367312492
p   1 1.0 
        0.0572800000         0.0399432915
d   1 1.0 
        0.1200000000         0.0697488842
d   1 1.0 
        0.3020000000         0.3507375256
d   1 1.0 
        0.7600000000         1.7635747413
f   1 1.0 
        0.2120000000         0.1738824562
f   1 1.0 
        0.5410000000         1.4311789031
g   1 1.0 
        0.4610000000         0.7827931063

  7 0
s   3 1.0 
       82.6400000000         0.4483321190
       12.4100000000         0.8272091211
        2.8240000000         1.3425357337
s   1 1.0 
        0.7977000000         0.6015750091
s   1 1.0 
        0.2581000000         0.2580780661
s   1 1.0 
        0.0898900000         0.1170020921
p   1 1.0 
        2.2920000000         4.0198361784
p   1 1.0 
        0.8380000000         1.1428654696
p   1 1.0 
        0.2920000000         0.3059628180
d   1 1.0 
        2.0620000000        10.1152178423
d   1 1.0 
        0.6620000000         1.3850694971
f   1 1.0 
        1.3970000000        12.0973986675

  8 0
s   3 1.0 
       82.6400000000         0.4483321190
       12.4100000000         0.8272091211
        2.8240000000         1.3425357337
s   1 1.0 
        0.7977000000         0.6015750091
s   1 1.0 
        0.2581000000         0.2580780661
s   1 1.0 
        0.0898900000         0.1170020921
p   1 1.0 
        2.2920000000         4.0198361784
p   1 1.0 
        0.8380000000         1.1428654696
p   1 1.0 
        0.2920000000         0.3059628180
d   1 1.0 
        2.0620000000        10.1152178423
d   1 1.0 
        0.6620000000         1.3850694971
f   1 1.0 
        1.3970000000        12.0973986675

[5D]
[7F]
[9G]
[MO]
 Sym=     1a
 Ene= -6.60339127207589E+01
 Spin= Alpha
 Occup= 2.000000
  1       0.000028135138
  2       0.000154760036
  3       0.000196867471
  4       0.000771456062
  5      -0.001818315722
  6      -0.000923028260
  7       0.000638381378
  8       0.000192153008
  9      -0.000085865850
 10       0.000616564797
 11       0.000184221461
 12      -0.000081943112
 13       0.000060327731
 14      -0.000021157408
 15       0.000020692288
 16      -0.001353523898
 17      -0.000335643758
 18       0.000127310459
 19      -0.000256354230
 20       0.000007333635
 21      -0.000025833036
 22       0.000220641635
 23       0.000049482882
 24       0.000019350484
 25      -0.000350167554
 26      -0.000159128726
 27       0.000182178766
 28      -0.000001011507
 29      -0.000082680818
 30      -0.000366899529
 31      -0.000070708350
 32      -0.000040118185
 33      -0.000003875474
 34       0.000004315670
 35       0.000069734668
 36       0.000021235429
 37      -0.000013695908
 38       0.000122311594
 39       0.000024328503
 40       0.000020631153
 41       0.000006145191
 42       0.000138571133
 43       0.000089018391
 44       0.000016737183
 45       0.000045588135
 46       0.000007338733
 47       0.000001948510
 48       0.000009785217
 49       0.000054592442
 50       0.000008728638
 51      -0.000004427124
 52      -0.000005296542
 53      -0.000004602082
 54       0.000016243725
 55       0.000000534334
 56       0.000007030401
 57       0.000004269147
 58       0.000014005479
 59       0.000006961390
 60       0.000012160039
 61       0.000039872753
 62       0.000047948091
 63       0.000034518976
 64      -0.000078420624
 65       0.000226342557
 66       0.000005555073
 67      -0.000019735778
 68       0.000016544701
 69       0.000005588530
 70      -0.000018840425
 71       0.000015844256
 72      -0.000003170603
 73       0.000005210550
 74      -0.000004268600
 75      -0.000028518746
 76       0.000023348395
 77      -0.000019398487
 78       0.000058468645
 79       0.000017690363
 80      -0.000005565558
 81       0.000001239542
 82       0.000013090930
 83      -0.000006754053
 84      -0.000005404708
 85      -0.000018586059
 86       0.000008509182
 87      -0.000023932329
 88       0.000003692865
 89      -0.000017139675
 90       0.000028080857
 91      -0.000003568154
 92       0.000005982984
 93      -0.000003889732
 94       0.000004580353
 95      -0.000006340643
 96       0.000003857768
 97       0.000006205671
 98      -0.000004442557
 99      -0.000012369565
100       0.000001000443
101       0.000010555126
102      -0.000011736994
103      -0.000001394891
104      -0.000003812466
105       0.000000197496
106       0.000001127472
107       0.000001416840
108      -0.000006165611
109       0.000000245024
110       0.000004177848
111      -0.000000864853
112      -0.000005052570
113      -0.000001807084
114      -0.000000678564
115       0.000003182944
116      -0.000005404361
117      -0.000008121185
118      -0.000003684398
119       0.000004234228
120      -0.000033185466
121       0.000189964914
122      -0.000026393152
123       0.000004007076
124       0.000004409569
125      -0.000000181734
126      -0.000015472455
127      -0.000010591694
128       0.000002849230
129       0.000061266651
130      -0.000089797205
131      -0.000046595679
132       0.000004255064
133       0.000002033583
134      -0.000003678811
135      -0.000001114980
136       0.000001697825
137      -0.000015880395
138      -0.000005051758
139       0.000016765110
140      -0.000008409212
141      -0.000010541577
142       0.000001829398
143      -0.000002484983
144       0.000000679309
145       0.000002078330
146       0.000000148701
147       0.000000830619
148      -0.000002867203
149       0.000004409635
150      -0.000034294798
151       0.000194301182
152      -0.000023756668
153       0.000004290384
154       0.000002071413
155      -0.000003660203
156      -0.000016004801
157      -0.000007842441
158       0.000007310886
159       0.000050638594
160       0.000019210986
161       0.000106818421
162      -0.000002911775
163      -0.000002268438
164      -0.000001310481
165      -0.000004635357
166      -0.000002101684
167       0.000022615294
168       0.000008925733
169       0.000002808522
170       0.000011704274
171       0.000003239589
172       0.000004225475
173      -0.000000040451
174      -0.000000089713
175       0.000000098741
176      -0.000001247989
177      -0.000001791358
178      -0.000001237991
179       0.000004085912
180       0.000064739038
181       0.000088761523
182       0.000685725932
183      -0.001812901482
184      -0.001338801378
185       0.000234524460
186       0.000875740907
187      -0.000603210412
188       0.000225071961
189       0.000841411081
190      -0.000579567262
191      -0.000007872070
192      -0.000073666656
193       0.000052384667
194      -0.000522951477
195      -0.001370338772
196       0.000927158604
197       0.000069045329
198      -0.000168231249
199       0.000123762324
200       0.000065168317
201       0.000096537890
202       0.000312983236
203       0.000137410544
204      -0.000160227602
205       0.000027803799
206       0.000126403370
207       0.000353644094
208       0.000232130785
209      -0.000185291782
210      -0.000004449594
211      -0.000013186672
212      -0.000042561974
213      -0.000025980554
214       0.000020020517
215      -0.000094127632
216       0.000002730488
217      -0.000016443150
218      -0.000060773242
219       0.000102188758
220      -0.000075798727
221       0.000021564394
222      -0.000019839075
223      -0.000006942851
224      -0.000018994657
225      -0.000045870052
226       0.000023568905
227      -0.000020979512
228      -0.000031629590
229       0.000001182142
230      -0.000005248918
231      -0.000005678549
232       0.000007392194
233       0.000002590463
234       0.000000748102
235       0.000000362356
236       0.000001415365
237       0.000006669213
238      -1.002644027391
239      -0.018456965896
240      -0.020570958184
241      -0.003830218246
242       0.000938936974
243       0.001673270866
244       0.002136677317
245       0.001728050235
246      -0.001059810344
247       0.002036702686
248       0.001642881911
249      -0.001007098427
250      -0.000291144332
251      -0.000246045287
252       0.000152998096
253      -0.003119738558
254      -0.002404471780
255       0.001457001613
256      -0.000605543508
257      -0.000438783967
258       0.000266273175
259      -0.000532009815
260      -0.000212970616
261      -0.000784261320
262       0.000309331323
263       0.000500368941
264      -0.000562472202
265       0.000203250553
266      -0.001008566436
267       0.000300175530
268      -0.000058990345
269       0.000029198017
270       0.000077899708
271       0.000017369738
272      -0.000018794402
273      -0.000117888559
274      -0.000125193606
275       0.000108448423
276      -0.000017749024
277      -0.000096845777
278       0.000148713096
279       0.000024108793
280       0.000062002487
281       0.000236282656
282      -0.000257860464
283       0.000057870560
284       0.000238671813
285      -0.000247566923
286      -0.000141639032
287      -0.000079055495
288       0.000022804841
289       0.000126779572
290       0.000069092986
291      -0.000126101626
292       0.000026256972
293      -0.000148013702
294      -0.000015415591
295      -0.000061321706
296      -0.000060965336
297      -0.000041568125
298      -0.000078598267
299       0.002044976770
300       0.000382898778
301       0.000039268117
302       0.000099612749
303       0.000069887495
304      -0.000123775721
305      -0.000321523593
306      -0.000229259649
307      -0.000413716371
308      -0.000848126807
309      -0.000480345707
310       0.000004585827
311      -0.000007886780
312      -0.000029650995
313       0.000017420022
314      -0.000025096900
315      -0.000057236304
316       0.000125327097
317       0.000308359288
318      -0.000193817489
319       0.000229732301
320       0.000042842277
321      -0.000006463041
322      -0.000002633573
323       0.000039186632
324      -0.000051950457
325      -0.000045075944
326      -0.000014184538
327      -0.000041476080
328      -0.000078969162
329       0.002041172982
330       0.000385533755
331       0.000053793461
332      -0.000030112075
333      -0.000111797333
334      -0.000170949079
335       0.000100894961
336       0.000362398746
337      -0.000524486150
338       0.000140288252
339       0.000908857779
340      -0.000025491021
341       0.000032128807
342      -0.000013322573
343      -0.000006124608
344       0.000000049051
345       0.000281233624
346      -0.000319806740
347       0.000125233964
348       0.000070185215
349      -0.000050325608
350       0.000030636168
351      -0.000071402986
352       0.000019863035
353       0.000033480126
354      -0.000025870411
355       0.000004722117
356      -0.000010974936
 Sym=     1a
 Ene= -6.60236221894396E+01
 Spin= Alpha
 Occup= 2.000000
  1      -0.000159857760
  2      -0.000207796511
  3      -0.000256062656
  4      -0.000491572214
  5       0.000859098453
  6       0.000720696783
  7      -0.000013463330
  8       0.000092301511
  9      -0.000059807857
 10      -0.000012941003
 11       0.000091403159
 12      -0.000059374560
 13       0.000028285332
 14       0.000138186383
 15      -0.000095323653
 16      -0.000282276067
 17      -0.000978793969
 18       0.000651181483
 19      -0.000016265305
 20      -0.000142499773
 21       0.000101751927
 22      -0.000089681315
 23      -0.000187572605
 24      -0.000406293521
 25      -0.000194349543
 26       0.000301156008
 27      -0.000002353662
 28      -0.000075986968
 29      -0.000265381628
 30      -0.000208445028
 31       0.000107074646
 32       0.000005927611
 33       0.000023858103
 34       0.000067929781
 35       0.000045851413
 36      -0.000035015813
 37       0.000002633406
 38       0.000000483377
 39      -0.000034446153
 40      -0.000120496357
 41       0.000164773645
 42      -0.000077168744
 43      -0.000117291791
 44      -0.000027687503
 45      -0.000001833253
 46      -0.000013044627
 47      -0.000028439421
 48      -0.000003590527
 49      -0.000004013661
 50      -0.000006413287
 51      -0.000007080338
 52      -0.000006360408
 53       0.000004896883
 54      -0.000012750117
 55       0.000007091940
 56      -0.000010792009
 57      -0.000016632112
 58      -0.000015358226
 59       0.000013608894
 60       1.002347742531
 61       0.016211388351
 62       0.017897574942
 63       0.003751930379
 64      -0.004528767450
 65      -0.001501798943
 66      -0.000699828649
 67      -0.000739412853
 68       0.000458076298
 69      -0.000715493011
 70      -0.000744514823
 71       0.000460076937
 72       0.000367881397
 73       0.000338641998
 74      -0.000204380138
 75      -0.002135994312
 76      -0.001594460020
 77       0.000923393379
 78      -0.000257479298
 79      -0.000221202769
 80       0.000130043315
 81       0.000327174679
 82       0.000136183555
 83       0.000387366142
 84      -0.000229427644
 85      -0.000332205951
 86       0.000259334821
 87       0.000120728902
 88       0.000297712889
 89      -0.000187121771
 90      -0.000281707473
 91      -0.000075909447
 92      -0.000037521317
 93      -0.000100146935
 94       0.000045137520
 95       0.000085835678
 96      -0.000145125790
 97       0.000180164973
 98      -0.000028856698
 99      -0.000143674222
100       0.000092471080
101       0.000137518685
102       0.000067934486
103      -0.000003147876
104       0.000006252092
105       0.000001936798
106       0.000001383457
107       0.000003536223
108       0.000004150569
109       0.000006608611
110      -0.000000681737
111      -0.000016976104
112      -0.000021805852
113       0.000060495432
114       0.000006359062
115       0.000015248256
116       0.000029884600
117       0.000046729848
118       0.000026570736
119      -0.000002785511
120       0.000018744471
121       0.000110331120
122       0.000003397650
123       0.000000662005
124       0.000006056608
125      -0.000001408820
126       0.000000648483
127      -0.000025797018
128       0.000000767000
129      -0.000003204232
130       0.000037804474
131       0.000022904838
132       0.000000363195
133      -0.000002262910
134       0.000000080792
135      -0.000005427390
136      -0.000002465616
137      -0.000002392746
138       0.000008579208
139      -0.000004603871
140       0.000011394305
141       0.000011342968
142      -0.000000454277
143       0.000000673130
144       0.000001347443
145       0.000001560785
146      -0.000003729349
147      -0.000001171671
148      -0.000001539693
149      -0.000003163904
150       0.000021090500
151       0.000099331708
152       0.000003529339
153       0.000001170287
154       0.000003550574
155      -0.000005262111
156      -0.000001934317
157      -0.000009989434
158       0.000024635412
159       0.000003713845
160      -0.000005588734
161      -0.000049216494
162       0.000004794795
163       0.000001822152
164      -0.000001585563
165      -0.000003945078
166       0.000000914119
167      -0.000013874764
168      -0.000010071747
169      -0.000001414949
170       0.000009137637
171      -0.000002748146
172       0.000001077527
173      -0.000003400579
174      -0.000001470556
175       0.000000544433
176      -0.000002040568
177       0.000001347781
178       0.000001400619
179      -0.000011882843
180      -0.000114671968
181      -0.000145116245
182      -0.000719605510
183       0.001962560671
184       0.001394941700
185       0.000819198083
186       0.000017333575
187       0.000066232370
188       0.000784803122
189       0.000015669977
190       0.000064127099
191      -0.000102312368
192       0.000012673680
193      -0.000018721567
194      -0.001679482230
195      -0.000441636806
196       0.000155199876
197      -0.000153081315
198       0.000082128008
199      -0.000070045985
200      -0.000247995648
201      -0.000110211432
202      -0.000109643581
203       0.000306170285
204       0.000260327883
205      -0.000205785291
206      -0.000058273780
207      -0.000016376415
208       0.000318985293
209       0.000172119735
210       0.000015201419
211       0.000005710795
212      -0.000000940536
213      -0.000024991071
214      -0.000014818427
215      -0.000028874457
216       0.000055746360
217       0.000028395765
218       0.000037733860
219       0.000042198651
220       0.000026175484
221       0.000091396365
222      -0.000002123566
223       0.000029608699
224       0.000004923046
225       0.000001747341
226       0.000000746007
227       0.000033965798
228       0.000018159052