[Molden Format]
[Title]
 Molden file created by orca_2mkl for BaseName=rah11

[Atoms] AU
C    1   6         -2.9435644480         3.4947243482         0.6320077729 
C    2   6         -5.1545825156         1.8523871818        -0.4156839581 
C    3   6         -0.5020651532         1.9321847385         0.1045446946 
C    4   6         -3.9765130802        -0.6960345406        -0.8805856834 
H    5   1         -5.9372391129         2.6442714775        -2.1795354868 
H    6   1         -6.7507784514         1.7588053527         0.9236665339 
C    7   6         -1.4642920708        -0.6527660459        -0.5946649430 
H    8   1          0.7512304230         1.8826387276         1.7692242200 
H    9   1          0.6205144893         2.7517720873        -1.4508284120 
H   10   1         -0.2184885946        -2.2733287966        -0.8644600805 
C   11   6         -3.2646648813         4.0940640656         3.4691313882 
H   12   1         -2.8681271763         5.3098359045        -0.3756457264 
C   13   6         -3.4303048579         1.8437672871         5.1417219231 
H   14   1         -4.9969104408         5.2686744394         3.6708726821 
H   15   1         -1.7021185820         5.3281689208         4.0909549106 
H   16   1         -2.7468357872         1.9064116291         7.0822274426 
H   17   1         -4.3642560734         0.1194451041         4.5129518874 
H   18   1         -5.0761762597        -2.3540246649        -1.4222009798 
[GTO]
  1 0
s   6 1.0 
    13575.3496820000         0.5435905310
     2035.2333680000         1.0145543947
      463.2256235900         1.7315731970
      131.2001959800         2.6910376290
       42.8530158910         3.6044547126
       15.5841857660         3.7025556986
s   2 1.0 
        6.2067138508         1.8383540830
        2.5764896527         0.5447575605
s   1 1.0 
        0.5769633942         0.4718145038
s   1 1.0 
        0.2297283136         0.2364944676
s   1 1.0 
        0.0951644400         0.1221141848
p   4 1.0 
       34.6972322440         1.3596651507
        7.9582622826         1.4512589486
        2.3780826883         1.2709231419
        0.8143320818         0.8025721189
p   1 1.0 
        0.2888754725         0.3018758868
p   1 1.0 
        0.1005682367         0.0807265016
d   1 1.0 
        1.0970000000         3.3522135855
d   1 1.0 
        0.3180000000         0.3838994974
f   1 1.0 
        0.7610000000         3.0840084332

  2 0
s   6 1.0 
    13575.3496820000         0.5435905310
     2035.2333680000         1.0145543947
      463.2256235900         1.7315731970
      131.2001959800         2.6910376290
       42.8530158910         3.6044547126
       15.5841857660         3.7025556986
s   2 1.0 
        6.2067138508         1.8383540830
        2.5764896527         0.5447575605
s   1 1.0 
        0.5769633942         0.4718145038
s   1 1.0 
        0.2297283136         0.2364944676
s   1 1.0 
        0.0951644400         0.1221141848
p   4 1.0 
       34.6972322440         1.3596651507
        7.9582622826         1.4512589486
        2.3780826883         1.2709231419
        0.8143320818         0.8025721189
p   1 1.0 
        0.2888754725         0.3018758868
p   1 1.0 
        0.1005682367         0.0807265016
d   1 1.0 
        1.0970000000         3.3522135855
d   1 1.0 
        0.3180000000         0.3838994974
f   1 1.0 
        0.7610000000         3.0840084332

  3 0
s   6 1.0 
    13575.3496820000         0.5435905310
     2035.2333680000         1.0145543947
      463.2256235900         1.7315731970
      131.2001959800         2.6910376290
       42.8530158910         3.6044547126
       15.5841857660         3.7025556986
s   2 1.0 
        6.2067138508         1.8383540830
        2.5764896527         0.5447575605
s   1 1.0 
        0.5769633942         0.4718145038
s   1 1.0 
        0.2297283136         0.2364944676
s   1 1.0 
        0.0951644400         0.1221141848
p   4 1.0 
       34.6972322440         1.3596651507
        7.9582622826         1.4512589486
        2.3780826883         1.2709231419
        0.8143320818         0.8025721189
p   1 1.0 
        0.2888754725         0.3018758868
p   1 1.0 
        0.1005682367         0.0807265016
d   1 1.0 
        1.0970000000         3.3522135855
d   1 1.0 
        0.3180000000         0.3838994974
f   1 1.0 
        0.7610000000         3.0840084332

  4 0
s   6 1.0 
    13575.3496820000         0.5435905310
     2035.2333680000         1.0145543947
      463.2256235900         1.7315731970
      131.2001959800         2.6910376290
       42.8530158910         3.6044547126
       15.5841857660         3.7025556986
s   2 1.0 
        6.2067138508         1.8383540830
        2.5764896527         0.5447575605
s   1 1.0 
        0.5769633942         0.4718145038
s   1 1.0 
        0.2297283136         0.2364944676
s   1 1.0 
        0.0951644400         0.1221141848
p   4 1.0 
       34.6972322440         1.3596651507
        7.9582622826         1.4512589486
        2.3780826883         1.2709231419
        0.8143320818         0.8025721189
p   1 1.0 
        0.2888754725         0.3018758868
p   1 1.0 
        0.1005682367         0.0807265016
d   1 1.0 
        1.0970000000         3.3522135855
d   1 1.0 
        0.3180000000         0.3838994974
f   1 1.0 
        0.7610000000         3.0840084332

  5 0
s   3 1.0 
       34.0613410000         0.2556299169
        5.1235746000         0.4613599649
        1.1646626000         0.6811214941
s   1 1.0 
        0.3272304100         0.3083545312
s   1 1.0 
        0.1030724100         0.1296483265
p   1 1.0 
        0.8000000000         1.0784563492

  6 0
s   3 1.0 
       34.0613410000         0.2556299169
        5.1235746000         0.4613599649
        1.1646626000         0.6811214941
s   1 1.0 
        0.3272304100         0.3083545312
s   1 1.0 
        0.1030724100         0.1296483265
p   1 1.0 
        0.8000000000         1.0784563492

  7 0
s   6 1.0 
    13575.3496820000         0.5435905310
     2035.2333680000         1.0145543947
      463.2256235900         1.7315731970
      131.2001959800         2.6910376290
       42.8530158910         3.6044547126
       15.5841857660         3.7025556986
s   2 1.0 
        6.2067138508         1.8383540830
        2.5764896527         0.5447575605
s   1 1.0 
        0.5769633942         0.4718145038
s   1 1.0 
        0.2297283136         0.2364944676
s   1 1.0 
        0.0951644400         0.1221141848
p   4 1.0 
       34.6972322440         1.3596651507
        7.9582622826         1.4512589486
        2.3780826883         1.2709231419
        0.8143320818         0.8025721189
p   1 1.0 
        0.2888754725         0.3018758868
p   1 1.0 
        0.1005682367         0.0807265016
d   1 1.0 
        1.0970000000         3.3522135855
d   1 1.0 
        0.3180000000         0.3838994974
f   1 1.0 
        0.7610000000         3.0840084332

  8 0
s   3 1.0 
       34.0613410000         0.2556299169
        5.1235746000         0.4613599649
        1.1646626000         0.6811214941
s   1 1.0 
        0.3272304100         0.3083545312
s   1 1.0 
        0.1030724100         0.1296483265
p   1 1.0 
        0.8000000000         1.0784563492

  9 0
s   3 1.0 
       34.0613410000         0.2556299169
        5.1235746000         0.4613599649
        1.1646626000         0.6811214941
s   1 1.0 
        0.3272304100         0.3083545312
s   1 1.0 
        0.1030724100         0.1296483265
p   1 1.0 
        0.8000000000         1.0784563492

 10 0
s   3 1.0 
       34.0613410000         0.2556299169
        5.1235746000         0.4613599649
        1.1646626000         0.6811214941
s   1 1.0 
        0.3272304100         0.3083545312
s   1 1.0 
        0.1030724100         0.1296483265
p   1 1.0 
        0.8000000000         1.0784563492

 11 0
s   6 1.0 
    13575.3496820000         0.5435905310
     2035.2333680000         1.0145543947
      463.2256235900         1.7315731970
      131.2001959800         2.6910376290
       42.8530158910         3.6044547126
       15.5841857660         3.7025556986
s   2 1.0 
        6.2067138508         1.8383540830
        2.5764896527         0.5447575605
s   1 1.0 
        0.5769633942         0.4718145038
s   1 1.0 
        0.2297283136         0.2364944676
s   1 1.0 
        0.0951644400         0.1221141848
p   4 1.0 
       34.6972322440         1.3596651507
        7.9582622826         1.4512589486
        2.3780826883         1.2709231419
        0.8143320818         0.8025721189
p   1 1.0 
        0.2888754725         0.3018758868
p   1 1.0 
        0.1005682367         0.0807265016
d   1 1.0 
        1.0970000000         3.3522135855
d   1 1.0 
        0.3180000000         0.3838994974
f   1 1.0 
        0.7610000000         3.0840084332

 12 0
s   3 1.0 
       34.0613410000         0.2556299169
        5.1235746000         0.4613599649
        1.1646626000         0.6811214941
s   1 1.0 
        0.3272304100         0.3083545312
s   1 1.0 
        0.1030724100         0.1296483265
p   1 1.0 
        0.8000000000         1.0784563492

 13 0
s   6 1.0 
    13575.3496820000         0.5435905310
     2035.2333680000         1.0145543947
      463.2256235900         1.7315731970
      131.2001959800         2.6910376290
       42.8530158910         3.6044547126
       15.5841857660         3.7025556986
s   2 1.0 
        6.2067138508         1.8383540830
        2.5764896527         0.5447575605
s   1 1.0 
        0.5769633942         0.4718145038
s   1 1.0 
        0.2297283136         0.2364944676
s   1 1.0 
        0.0951644400         0.1221141848
p   4 1.0 
       34.6972322440         1.3596651507
        7.9582622826         1.4512589486
        2.3780826883         1.2709231419
        0.8143320818         0.8025721189
p   1 1.0 
        0.2888754725         0.3018758868
p   1 1.0 
        0.1005682367         0.0807265016
d   1 1.0 
        1.0970000000         3.3522135855
d   1 1.0 
        0.3180000000         0.3838994974
f   1 1.0 
        0.7610000000         3.0840084332

 14 0
s   3 1.0 
       34.0613410000         0.2556299169
        5.1235746000         0.4613599649
        1.1646626000         0.6811214941
s   1 1.0 
        0.3272304100         0.3083545312
s   1 1.0 
        0.1030724100         0.1296483265
p   1 1.0 
        0.8000000000         1.0784563492

 15 0
s   3 1.0 
       34.0613410000         0.2556299169
        5.1235746000         0.4613599649
        1.1646626000         0.6811214941
s   1 1.0 
        0.3272304100         0.3083545312
s   1 1.0 
        0.1030724100         0.1296483265
p   1 1.0 
        0.8000000000         1.0784563492

 16 0
s   3 1.0 
       34.0613410000         0.2556299169
        5.1235746000         0.4613599649
        1.1646626000         0.6811214941
s   1 1.0 
        0.3272304100         0.3083545312
s   1 1.0 
        0.1030724100         0.1296483265
p   1 1.0 
        0.8000000000         1.0784563492

 17 0
s   3 1.0 
       34.0613410000         0.2556299169
        5.1235746000         0.4613599649
        1.1646626000         0.6811214941
s   1 1.0 
        0.3272304100         0.3083545312
s   1 1.0 
        0.1030724100         0.1296483265
p   1 1.0 
        0.8000000000         1.0784563492

 18 0
s   3 1.0 
       34.0613410000         0.2556299169
        5.1235746000         0.4613599649
        1.1646626000         0.6811214941
s   1 1.0 
        0.3272304100         0.3083545312
s   1 1.0 
        0.1030724100         0.1296483265
p   1 1.0 
        0.8000000000         1.0784563492

[5D]
[7F]
[9G]
[MO]
 Sym=     1a
 Ene= -9.90348574443954E+00
 Spin= Alpha
 Occup= 1.000000
  1       0.467668263610
  2       0.606505250239
  3       0.047116184368
  4      -0.052518974895
  5       0.096361372266
  6      -0.000046665539
  7      -0.000749162028
  8       0.000437830954
  9       0.000251555628
 10       0.007657385531
 11      -0.004009353348
 12      -0.000171575737
 13      -0.012354752081
 14       0.006598950538
 15       0.000037811015
 16      -0.000027320819
 17       0.000064230444
 18      -0.000193530293
 19      -0.000015848017
 20      -0.000919504507
 21       0.000068956172
 22      -0.003856130540
 23      -0.001772310722
 24       0.000400889909
 25       0.000154075513
 26       0.000077388892
 27       0.000066714337
 28       0.000652982431
 29      -0.000042796852
 30       0.000067491561
 31       0.000421392699
 32       0.002174496783
 33       0.002890946483
 34      -0.000961374940
 35       0.008109440874
 36      -0.031898501300
 37       0.000027347428
 38       0.000205834275
 39       0.000116555163
 40       0.003061487361
 41       0.000047249228
 42       0.000750663725
 43      -0.005487324059
 44      -0.004545875591
 45      -0.004392761843
 46       0.000045522347
 47       0.000035047534
 48      -0.000035453078
 49      -0.000074807265
 50       0.000038141412
 51      -0.000880812180
 52      -0.000710732783
 53       0.000427295943
 54       0.000536108812
 55      -0.000478725487
 56       0.000321089378
 57      -0.000046805739
 58       0.000204675145
 59      -0.000094790246
 60      -0.000483123179
 61      -0.000135128862
 62       0.000452834618
 63       0.001773816113
 64       0.002377627423
 65      -0.001069093111
 66       0.008497692973
 67      -0.034114258794
 68      -0.000050452601
 69       0.000203702072
 70       0.000098442324
 71      -0.003303894603
 72      -0.000056877972
 73       0.000126353228
 74       0.007175468669
 75      -0.003955628420
 76      -0.003211541677
 77       0.000020102219
 78      -0.000067301326
 79      -0.000052308497
 80      -0.000058699133
 81      -0.000032751200
 82      -0.000535729718
 83       0.001087787062
 84       0.000636644023
 85       0.000287247767
 86       0.000349520075
 87       0.000287451722
 88      -0.000183563629
 89       0.000324383067
 90      -0.000115097991
 91       0.000239362670
 92       0.000044931653
 93       0.000558025679
 94      -0.000089416966
 95      -0.000067966606
 96      -0.000170693822
 97      -0.001356073706
 98       0.001337390301
 99      -0.000070473567
100      -0.000012999652
101       0.000033868979
102      -0.000113058925
103      -0.001885177144
104      -0.000519790500
105      -0.000797195548
106      -0.000802814980
107      -0.000501600635
108       0.000082359859
109       0.000007532278
110       0.000005796154
111       0.000022738315
112      -0.000064574271
113      -0.000077041995
114       0.000077928849
115      -0.000302161751
116       0.000821813726
117       0.000367452559
118      -0.000050989618
119      -0.000033877988
120       0.000022270488
121       0.000042748034
122       0.000056720911
123      -0.000043914798
124      -0.000138523080
125       0.000036924154
126       0.000833608969
127       0.001519543873
128      -0.000218452371
129      -0.000245835437
130       0.000059634055
131      -0.000051443028
132      -0.000598993828
133       0.003785797421
134      -0.000222368935
135      -0.000299909574
136      -0.000072497093
137      -0.000092487495
138      -0.000071741968
139      -0.000154162753
140      -0.001507092160
141       0.003762631286
142       0.000064363474
143      -0.000013222978
144       0.000043233009
145       0.000235641681
146      -0.001901964954
147      -0.000452068093
148       0.000492953439
149       0.000040123800
150      -0.000042531227
151       0.000075367473
152      -0.000036419181
153       0.000013873935
154       0.000024661607
155       0.000062973082
156      -0.000041005423
157       0.000170261593
158      -0.000331044394
159       0.000848101750
160      -0.000252767529
161      -0.000025749274
162       0.000067293459
163       0.000015081637
164       0.000005722548
165      -0.000022919308
166       0.000059657405
167      -0.000146149002
168      -0.000073750557
169      -0.000489915948
170       0.003841966248
171       0.000234645373
172      -0.000295269173
173      -0.000018095123
174       0.000044613178
175       0.000942180681
176       0.001342358098
177       0.000196507846
178      -0.000242742298
179       0.000126532175
180       0.000008692925
181      -0.000582535373
182      -0.000958911528
183       0.000006885873
184      -0.000144532657
185      -0.000068626298
186       0.004908829737
187       0.006422724856
188      -0.000532856819
189       0.007223653242
190      -0.027361933241
191       0.000016874861
192      -0.000021199010
193      -0.000134827367
194       0.000285653869
195      -0.000676094147
196      -0.003019578366
197      -0.001525040942
198       0.002153759823
199       0.008114724001
200       0.000009229228
201       0.000005474710
202      -0.000042219096
203       0.000003556183
204       0.000006281759
205      -0.000195681171
206      -0.000002015634
207      -0.000063489267
208      -0.000069849142
209      -0.000065234408
210       0.000627745725
211      -0.000211600536
212       0.000398640281
213      -0.000195340465
214      -0.000041993877
215      -0.000013132196
216      -0.000305549521
217      -0.000618606430
218      -0.005843180214
219      -0.005526039375
220       0.000069247874
221       0.002313876535
222      -0.001127749946
223       0.000642754558
224       0.000776185912
225       0.000776531569
226      -0.001644837146
227       0.000207189715
228       0.000044517127
229      -0.000030550797
230      -0.000199321932
231      -0.000262145829
232      -0.000052242845
233       0.001450017272
234       0.000652609327
235       0.000234122112
236       0.001634650873
237       0.000075813706
238      -0.000011646119
239       0.000065660879
240      -0.000039770253
241      -0.000015052984
242      -0.001044766002
243       0.000177024053
244       0.000133488138
245       0.000041301307
246      -0.000029352456
247       0.000077630753
248      -0.000027056364
249      -0.000136887949
250       0.000040879544
251       0.000044375816
252       0.000023440982
253       0.000004520766
254      -0.000092419672
255      -0.000677520164
256       0.001053177589
257      -0.000085980191
258       0.000118986442
259       0.000437711557
260      -0.000072380268
261      -0.000412476201
262       0.001495940771
263      -0.000047677605
264       0.000086002574
265       0.000437295492
266       0.000020652160
267       0.000190839607
268      -0.001459672786
269      -0.000060498436
270      -0.000004064704
271       0.000044457070
272       0.000089396853
273      -0.000039601230
274       0.000731618508
275      -0.000024428246
276       0.000030954866
277      -0.000006792815
278       0.000007663688
279      -0.000606829531
280      -0.001117705239
281       0.000008177636
282      -0.000148628783
283      -0.000069039575
 Sym=     1a
 Ene= -9.90020463888600E+00
 Spin= Alpha
 Occup= 1.000000
  1       0.000976347033
  2       0.001334676696
  3      -0.000833837613
  4       0.004740164752
  5      -0.012001270533
  6       0.000015286957
  7       0.000026444308
  8      -0.000066831354
  9      -0.000345150530
 10      -0.000888290105
 11       0.001822383436
 12       0.001033782251
 13       0.007671355513
 14       0.000508957141
 15       0.000011327944
 16       0.000005169994
 17      -0.000093274553
 18      -0.000130276490
 19      -0.000000986191
 20       0.001011492893
 21      -0.000036735798
 22       0.000401799783
 23       0.000957406009
 24       0.000115231441
 25       0.000141586277
 26      -0.000036323317
 27      -0.000102311886
 28      -0.000117171134
 29       0.000025394526
 30      -0.000007834813
 31      -0.000048118492
 32      -0.000332269202
 33      -0.000381284494
 34      -0.000248603817
 35      -0.000145519233
 36       0.011020951609
 37      -0.000013261541
 38      -0.000013154587
 39      -0.000114681327
 40      -0.000069431542
 41      -0.000153765879
 42       0.000239823256
 43       0.004002607006
 44      -0.000322893493
 45       0.001806623145
 46      -0.000073202140
 47      -0.000058387410
 48      -0.000034672898
 49       0.000007271966
 50       0.000007174087
 51       0.000523650262
 52       0.000416670888
 53       0.000043074633
 54       0.000110705023
 55      -0.000173067237
 56       0.000022289843
 57       0.000090944882
 58       0.000006960398
 59       0.000055786648
 60      -0.000003862882
 61      -0.000061209390
 62       0.000025411117
 63      -0.000212167432
 64      -0.000230359071
 65      -0.000149900124
 66      -0.000867021670
 67       0.002975464052
 68       0.000037731616
 69      -0.000044676036
 70      -0.000063029562
 71      -0.000006790182
 72       0.000429904814
 73       0.000419483386
 74      -0.003489878504
 75      -0.000150043045
 76       0.002207797904
 77      -0.000012646310
 78       0.000051852580
 79      -0.000057974926
 80      -0.000012744306
 81      -0.000006555428
 82       0.000198111869
 83      -0.000247139572
 84       0.000256853198
 85       0.000428100397
 86      -0.000054921931
 87      -0.000029545448
 88      -0.000087290854
 89      -0.000015937838
 90       0.000090997021
 91      -0.000007983508
 92       0.000068161375
 93       0.000034033999
 94      -0.000120091395
 95      -0.000127483621
 96      -0.000349280463
 97       0.001871263407
 98      -0.009266933745
 99      -0.000019413690
100      -0.000027296270
101      -0.000074880404
102       0.000697441079
103       0.000270775137
104       0.000141282874
105      -0.001735279597
106      -0.002572762248
107      -0.001132547620
108      -0.000065408064
109      -0.000031657757
110      -0.000030556804
111       0.000016193955
112      -0.000033174642
113      -0.000008861419
114      -0.000048833072
115       0.000134888929
116       0.000165752329
117       0.000126388688
118       0.000023118610
119      -0.000022004514
120      -0.000005773373
121      -0.000035936842
122      -0.000042125098
123      -0.000013021065
124      -0.000003068083
125      -0.000015685158
126      -0.000282463917
127       0.000634091248
128       0.000006528335
129       0.000049019050
130       0.000026007798
131      -0.000036525439
132       0.000160513347
133       0.000676161463
134       0.000104701713
135       0.000016633471
136       0.000056751602
137      -0.000044790970
138      -0.000049563371
139       0.000100191201
140      -0.001757726098
141       0.007112635794
142       0.000032765055
143      -0.000061019916
144      -0.000070533012
145       0.000613201620
146       0.000515113315
147       0.000365784364
148      -0.002333252736
149       0.002245681975
150       0.000629995539
151      -0.000005088997
152       0.000089081119
153      -0.000065505187
154      -0.000004192920
155       0.000029870757
156       0.000083655975
157      -0.000355457634
158       0.000423907372
159      -0.000379102508
160       0.000212833059
161      -0.000048877859
162      -0.000011442852
163       0.000010118376
164      -0.000004668314
165       0.000034714918
166      -0.000033372477
167       0.000010498757
168       0.000005355254
169      -0.000280577466
170       0.001488221636
171      -0.000146068883
172       0.000036174559
173       0.000099249273
174      -0.000018440790
175       0.000376554643
176       0.001682106182
177      -0.000071362198
178       0.000027854667
179       0.000075876662
180       0.000003425529
181       0.000306246519
182       0.000684478723
183      -0.000015263200
184       0.000080696392
185       0.000076393979
186      -0.032826573113
187      -0.042652531486
188      -0.003713697791
189       0.002155139018
190       0.000893230201
191       0.000003717891
192       0.000271030290
193      -0.000229109132
194      -0.000197548566
195      -0.001141171347
196       0.001723795036
197      -0.001350088423
198      -0.003329163241
199       0.003430601176
200       0.000041678258
201      -0.000054546388
202      -0.000153823601
203      -0.000124054724
204      -0.000004712173
205      -0.000331188625
206       0.000099709634
207      -0.002420413514
208      -0.001336595094
209       0.000144443983
210      -0.000290595748
211      -0.000153276918
212      -0.000367369230
213      -0.001107489138
214       0.000070045577
215      -0.000108812296
216      -0.000326790578
217       0.000129771794
218       0.000978502095
219      -0.001958877495
220      -0.000033958632
221      -0.000142935145
222       0.000151162694
223      -0.466117839275
224      -0.605572236139
225      -0.040600837761
226       0.022018404668
227      -0.023741395920
228      -0.000092838976
229      -0.000463621529
230       0.000557455196
231       0.000726756810
232       0.001581220106
233      -0.001918774439
234       0.000271611450
235      -0.000804423257
236       0.002697932481
237      -0.000222570790
238      -0.000257378860
239       0.000137181792
240       0.000245805307
241      -0.000216813526
242      -0.000163401295
243      -0.001124955813
244      -0.000925422133
245       0.000852858267
246      -0.001334398691
247      -0.000932698405
248      -0.000641258485
249      -0.000324562397
250      -0.000498002030
251       0.000381448969
252       0.000560969983
253       0.000008475116
254       0.000087968724
255       0.000617689472
256       0.001441729556
257       0.000017313113
258      -0.000270991427
259       0.000157160890
260      -0.000043566533
261       0.001295185917
262       0.001597902304
263      -0.000060400036
264      -0.000375168538
265       0.000127795011
266       0.000785835673
267       0.002066758207
268       0.002913065857
269      -0.000759545052
270       0.000078190144
271      -0.002298932674
272       0.000659477861
273       0.003736770223
274       0.004232054437
275       0.001160091924
276       0.002170442085
277       0.000640332842
278      -0.000008001879
279      -0.000032751571
280      -0.000458875146
281       0.000002412870
282      -0.000002191114
283       0.000027572862
 Sym=     1a
 Ene= -9.89905759418195E+00
 Spin= Alpha
 Occup= 1.000000
  1      -0.004878841165
  2      -0.006284368506
  3      -0.000592264712
  4       0.004428798347
  5      -0.005329363225
  6      -0.000019192914
  7       0.000134188394
  8       0.000277806464
  9      -0.000180467444
 10       0.000203562199
 11       0.000467722152
 12       0.001012782083
 13      -0.002856143706
 14      -0.007792278269
 15      -0.000010254574
 16       0.000019230119
 17       0.000022191152
 18       0.000060579546
 19      -0.000001239470
 20      -0.001667131542
 21       0.000175560562
 22      -0.000924119599
 23      -0.000684201909
 24       0.000133075337
 25      -0.000829623955
 26       0.000249288664
 27      -0.000426350801
 28       0.000121606618
 29       0.000052846101
 30       0.000004950823
 31       0.000254171257
 32      -0.000065573168
 33      -0.000096757588
 34       0.000179491262
 35      -0.000430378025
 36      -0.007882120543
 37       0.000089993138
 38      -0.000077320540
 39       0.000001438843
 40      -0.001553215093
 41       0.000858372371
 42       0.000019627338
 43      -0.002657055306
 44      -0.000571670984
 45      -0.000299898324
 46      -0.000089770240
 47      -0.000019832130
 48      -0.000016737520
 49       0.000002284855
 50      -0.000006157489
 51       0.000433414556
 52      -0.000985411703
 53      -0.000434238226
 54       0.000700642486
 55       0.000443467819
 56       0.000002560584
 57      -0.000230276972
 58      -0.000108370328
 59       0.000071745087
 60      -0.000055471932
 61      -0.000018340355
 62      -0.000040942046
 63      -0.000070887399
 64      -0.000097140809
 65       0.000097151075
 66      -0.000218589225
 67      -0.008422523211
 68      -0.000072520823
 69      -0.000084717577
 70      -0.000026815524
 71       0.001354667854
 72       0.000933666221
 73       0.000432305640
 74       0.002580090727
 75      -0.000519862561
 76       0.000495799066
 77      -0.000078874811
 78       0.000055587404
 79      -0.000019985892
 80      -0.000010577224
 81       0.000008278956
 82       0.000806137711
 83       0.000857097105
 84      -0.000398946563
 85       0.000547805787
 86      -0.000298987587
 87       0.000122933251
 88       0.000197506657
 89      -0.000064580806
 90      -0.000018507814
 91       0.000085863822
 92       0.000025605812
 93      -0.000018218343
 94       0.000085316823
 95       0.000095065724
 96      -0.000174885069
 97       0.001983467661
 98       0.001772212990
 99       0.000025108254
100      -0.000037041371
101       0.000011900690
102      -0.000326694967
103       0.001392738173
104       0.000369031837
105      -0.000096839454
106       0.000654362685
107       0.000160649526
108      -0.000007268879
109       0.000009584378
110       0.000044770463
111      -0.000025543605
112      -0.000006718601
113      -0.000189827810
114      -0.000084053608
115       0.000078696531
116      -0.000075339550
117      -0.000391939958
118      -0.000022407200
119      -0.000002437645
120      -0.000035744419
121      -0.000033240827
122      -0.000010558495
123      -0.000031281829
124       0.000005583227
125      -0.000079689030
126       0.000254440167
127       0.000416750830
128      -0.000066954623
129       0.000052449785
130       0.000033163326
131      -0.000088642895
132      -0.001609542924
133      -0.000081017083
134      -0.000411226405
135      -0.000109509295
136       0.000086738921
137       0.000105822947
138       0.000116657736
139      -0.000035907817
140       0.001023774085
141       0.003039710046
142      -0.000032789025
143      -0.000035781774
144       0.000012580894
145       0.000637207861
146       0.001323963856
147       0.000431329754
148      -0.000159657579
149       0.000764245024
150       0.000285573084
151      -0.000004063008
152      -0.000012801512
153       0.000040838182
154      -0.000029664560
155      -0.000010499700
156      -0.000074019207
157       0.000094639277
158       0.000177778281
159      -0.000243316884
160       0.000399907471
161      -0.000022943361