[Molden Format]
[Title]
 Molden file created by orca_2mkl for BaseName=rahNBD

[Atoms] AU
C    1   6         -9.5041480770        11.1903300844         6.2875170592 
C    2   6         -7.3404257022         9.5908205008         5.2812084073 
C    3   6         -7.6797544231         7.1220839747         4.9129958290 
C    4   6        -10.1508558639         5.8101522278         5.4697546470 
C    5   6        -12.2108716527         7.6627005587         6.4087078156 
C    6   6        -12.9961342981         9.4042538860         4.2634507266 
C    7   6        -11.4766411764        11.4089471200         4.1872762105 
C    8   6        -10.9695465993         9.5747115294         8.2191740873 
H    9   1         -8.8436787412        12.9974243494         7.0191040426 
H   10   1         -5.5575783500        10.4912237589         4.8233393677 
H   11   1         -6.1595947838         5.9693838906         4.1595961917 
H   12   1         -9.8373691708         4.3421763254         6.8969017762 
H   13   1        -10.8004628413         4.8152925946         3.7720030493 
H   14   1        -13.7791806124         6.6193392973         7.2450548095 
H   15   1        -14.4541252097         8.9427724857         2.9042856695 
H   16   1        -11.4594684274        12.8748426717         2.7611312073 
H   17   1        -12.4062174529        10.7027275508         9.1767142475 
H   18   1         -9.7420207932         8.6989881333         9.6245908912 
[GTO]
  1 0
s   6 1.0 
    13575.3496820000         0.5667857950
     2035.2333680000         1.0341055235
      463.2256235900         1.7507313183
      131.2001959800         2.7119139039
       42.8530158900         3.6102525810
       15.5841857700         3.6962813309
s   1 1.0 
        6.2067138500         2.8025694579
s   1 1.0 
        2.5764896500         1.4493770955
s   1 1.0 
        0.5769633900         0.4718145012
s   1 1.0 
        0.2297283100        -0.2364944648
s   1 1.0 
        0.0951644400         0.1221141848
p   4 1.0 
       34.6972322400         1.3647875933
        7.9582622800         1.4529027194
        2.3780826900         1.2707416316
        0.8143320800         0.8025623175
p   1 1.0 
        0.2888754700         0.3018758836
p   1 1.0 
        0.1005682400         0.0807265050
d   1 1.0 
        1.0970000000         3.3522135855
d   1 1.0 
        0.3180000000         0.3838994974
f   1 1.0 
        0.7610000000         3.0840084332

  2 0
s   6 1.0 
    13575.3496820000         0.5667857950
     2035.2333680000         1.0341055235
      463.2256235900         1.7507313183
      131.2001959800         2.7119139039
       42.8530158900         3.6102525810
       15.5841857700         3.6962813309
s   1 1.0 
        6.2067138500         2.8025694579
s   1 1.0 
        2.5764896500         1.4493770955
s   1 1.0 
        0.5769633900         0.4718145012
s   1 1.0 
        0.2297283100        -0.2364944648
s   1 1.0 
        0.0951644400         0.1221141848
p   4 1.0 
       34.6972322400         1.3647875933
        7.9582622800         1.4529027194
        2.3780826900         1.2707416316
        0.8143320800         0.8025623175
p   1 1.0 
        0.2888754700         0.3018758836
p   1 1.0 
        0.1005682400         0.0807265050
d   1 1.0 
        1.0970000000         3.3522135855
d   1 1.0 
        0.3180000000         0.3838994974
f   1 1.0 
        0.7610000000         3.0840084332

  3 0
s   6 1.0 
    13575.3496820000         0.5667857950
     2035.2333680000         1.0341055235
      463.2256235900         1.7507313183
      131.2001959800         2.7119139039
       42.8530158900         3.6102525810
       15.5841857700         3.6962813309
s   1 1.0 
        6.2067138500         2.8025694579
s   1 1.0 
        2.5764896500         1.4493770955
s   1 1.0 
        0.5769633900         0.4718145012
s   1 1.0 
        0.2297283100        -0.2364944648
s   1 1.0 
        0.0951644400         0.1221141848
p   4 1.0 
       34.6972322400         1.3647875933
        7.9582622800         1.4529027194
        2.3780826900         1.2707416316
        0.8143320800         0.8025623175
p   1 1.0 
        0.2888754700         0.3018758836
p   1 1.0 
        0.1005682400         0.0807265050
d   1 1.0 
        1.0970000000         3.3522135855
d   1 1.0 
        0.3180000000         0.3838994974
f   1 1.0 
        0.7610000000         3.0840084332

  4 0
s   6 1.0 
    13575.3496820000         0.5667857950
     2035.2333680000         1.0341055235
      463.2256235900         1.7507313183
      131.2001959800         2.7119139039
       42.8530158900         3.6102525810
       15.5841857700         3.6962813309
s   1 1.0 
        6.2067138500         2.8025694579
s   1 1.0 
        2.5764896500         1.4493770955
s   1 1.0 
        0.5769633900         0.4718145012
s   1 1.0 
        0.2297283100        -0.2364944648
s   1 1.0 
        0.0951644400         0.1221141848
p   4 1.0 
       34.6972322400         1.3647875933
        7.9582622800         1.4529027194
        2.3780826900         1.2707416316
        0.8143320800         0.8025623175
p   1 1.0 
        0.2888754700         0.3018758836
p   1 1.0 
        0.1005682400         0.0807265050
d   1 1.0 
        1.0970000000         3.3522135855
d   1 1.0 
        0.3180000000         0.3838994974
f   1 1.0 
        0.7610000000         3.0840084332

  5 0
s   6 1.0 
    13575.3496820000         0.5667857950
     2035.2333680000         1.0341055235
      463.2256235900         1.7507313183
      131.2001959800         2.7119139039
       42.8530158900         3.6102525810
       15.5841857700         3.6962813309
s   1 1.0 
        6.2067138500         2.8025694579
s   1 1.0 
        2.5764896500         1.4493770955
s   1 1.0 
        0.5769633900         0.4718145012
s   1 1.0 
        0.2297283100        -0.2364944648
s   1 1.0 
        0.0951644400         0.1221141848
p   4 1.0 
       34.6972322400         1.3647875933
        7.9582622800         1.4529027194
        2.3780826900         1.2707416316
        0.8143320800         0.8025623175
p   1 1.0 
        0.2888754700         0.3018758836
p   1 1.0 
        0.1005682400         0.0807265050
d   1 1.0 
        1.0970000000         3.3522135855
d   1 1.0 
        0.3180000000         0.3838994974
f   1 1.0 
        0.7610000000         3.0840084332

  6 0
s   6 1.0 
    13575.3496820000         0.5667857950
     2035.2333680000         1.0341055235
      463.2256235900         1.7507313183
      131.2001959800         2.7119139039
       42.8530158900         3.6102525810
       15.5841857700         3.6962813309
s   1 1.0 
        6.2067138500         2.8025694579
s   1 1.0 
        2.5764896500         1.4493770955
s   1 1.0 
        0.5769633900         0.4718145012
s   1 1.0 
        0.2297283100        -0.2364944648
s   1 1.0 
        0.0951644400         0.1221141848
p   4 1.0 
       34.6972322400         1.3647875933
        7.9582622800         1.4529027194
        2.3780826900         1.2707416316
        0.8143320800         0.8025623175
p   1 1.0 
        0.2888754700         0.3018758836
p   1 1.0 
        0.1005682400         0.0807265050
d   1 1.0 
        1.0970000000         3.3522135855
d   1 1.0 
        0.3180000000         0.3838994974
f   1 1.0 
        0.7610000000         3.0840084332

  7 0
s   6 1.0 
    13575.3496820000         0.5667857950
     2035.2333680000         1.0341055235
      463.2256235900         1.7507313183
      131.2001959800         2.7119139039
       42.8530158900         3.6102525810
       15.5841857700         3.6962813309
s   1 1.0 
        6.2067138500         2.8025694579
s   1 1.0 
        2.5764896500         1.4493770955
s   1 1.0 
        0.5769633900         0.4718145012
s   1 1.0 
        0.2297283100        -0.2364944648
s   1 1.0 
        0.0951644400         0.1221141848
p   4 1.0 
       34.6972322400         1.3647875933
        7.9582622800         1.4529027194
        2.3780826900         1.2707416316
        0.8143320800         0.8025623175
p   1 1.0 
        0.2888754700         0.3018758836
p   1 1.0 
        0.1005682400         0.0807265050
d   1 1.0 
        1.0970000000         3.3522135855
d   1 1.0 
        0.3180000000         0.3838994974
f   1 1.0 
        0.7610000000         3.0840084332

  8 0
s   6 1.0 
    13575.3496820000         0.5667857950
     2035.2333680000         1.0341055235
      463.2256235900         1.7507313183
      131.2001959800         2.7119139039
       42.8530158900         3.6102525810
       15.5841857700         3.6962813309
s   1 1.0 
        6.2067138500         2.8025694579
s   1 1.0 
        2.5764896500         1.4493770955
s   1 1.0 
        0.5769633900         0.4718145012
s   1 1.0 
        0.2297283100        -0.2364944648
s   1 1.0 
        0.0951644400         0.1221141848
p   4 1.0 
       34.6972322400         1.3647875933
        7.9582622800         1.4529027194
        2.3780826900         1.2707416316
        0.8143320800         0.8025623175
p   1 1.0 
        0.2888754700         0.3018758836
p   1 1.0 
        0.1005682400         0.0807265050
d   1 1.0 
        1.0970000000         3.3522135855
d   1 1.0 
        0.3180000000         0.3838994974
f   1 1.0 
        0.7610000000         3.0840084332

  9 0
s   3 1.0 
       34.0613410000         0.2556300129
        5.1235746000         0.4613599287
        1.1646626000         0.6811215012
s   1 1.0 
        0.3272304100         0.3083545312
s   1 1.0 
        0.1030724100         0.1296483265
p   1 1.0 
        0.8000000000         1.0784563492

 10 0
s   3 1.0 
       34.0613410000         0.2556300129
        5.1235746000         0.4613599287
        1.1646626000         0.6811215012
s   1 1.0 
        0.3272304100         0.3083545312
s   1 1.0 
        0.1030724100         0.1296483265
p   1 1.0 
        0.8000000000         1.0784563492

 11 0
s   3 1.0 
       34.0613410000         0.2556300129
        5.1235746000         0.4613599287
        1.1646626000         0.6811215012
s   1 1.0 
        0.3272304100         0.3083545312
s   1 1.0 
        0.1030724100         0.1296483265
p   1 1.0 
        0.8000000000         1.0784563492

 12 0
s   3 1.0 
       34.0613410000         0.2556300129
        5.1235746000         0.4613599287
        1.1646626000         0.6811215012
s   1 1.0 
        0.3272304100         0.3083545312
s   1 1.0 
        0.1030724100         0.1296483265
p   1 1.0 
        0.8000000000         1.0784563492

 13 0
s   3 1.0 
       34.0613410000         0.2556300129
        5.1235746000         0.4613599287
        1.1646626000         0.6811215012
s   1 1.0 
        0.3272304100         0.3083545312
s   1 1.0 
        0.1030724100         0.1296483265
p   1 1.0 
        0.8000000000         1.0784563492

 14 0
s   3 1.0 
       34.0613410000         0.2556300129
        5.1235746000         0.4613599287
        1.1646626000         0.6811215012
s   1 1.0 
        0.3272304100         0.3083545312
s   1 1.0 
        0.1030724100         0.1296483265
p   1 1.0 
        0.8000000000         1.0784563492

 15 0
s   3 1.0 
       34.0613410000         0.2556300129
        5.1235746000         0.4613599287
        1.1646626000         0.6811215012
s   1 1.0 
        0.3272304100         0.3083545312
s   1 1.0 
        0.1030724100         0.1296483265
p   1 1.0 
        0.8000000000         1.0784563492

 16 0
s   3 1.0 
       34.0613410000         0.2556300129
        5.1235746000         0.4613599287
        1.1646626000         0.6811215012
s   1 1.0 
        0.3272304100         0.3083545312
s   1 1.0 
        0.1030724100         0.1296483265
p   1 1.0 
        0.8000000000         1.0784563492

 17 0
s   3 1.0 
       34.0613410000         0.2556300129
        5.1235746000         0.4613599287
        1.1646626000         0.6811215012
s   1 1.0 
        0.3272304100         0.3083545312
s   1 1.0 
        0.1030724100         0.1296483265
p   1 1.0 
        0.8000000000         1.0784563492

 18 0
s   3 1.0 
       34.0613410000         0.2556300129
        5.1235746000         0.4613599287
        1.1646626000         0.6811215012
s   1 1.0 
        0.3272304100         0.3083545312
s   1 1.0 
        0.1030724100         0.1296483265
p   1 1.0 
        0.8000000000         1.0784563492

[5D]
[7F]
[9G]
[MO]
 Sym=     1a
 Ene= -1.01840540086365E+01
 Spin= Alpha
 Occup= 2.000000
  1       0.468302743429
  2       0.391375824044
  3       0.240152862279
  4       0.024527749119
  5       0.012139281942
  6       0.038255566202
  7      -0.000059206148
  8      -0.000246543823
  9      -0.000148780506
 10       0.000534354694
 11       0.000075291776
 12      -0.000698304286
 13      -0.003099986776
 14      -0.008264431365
 15      -0.002985952489
 16      -0.000104253844
 17       0.000023016542
 18       0.000114579033
 19      -0.000049214159
 20       0.000094667489
 21       0.000027507154
 22       0.000090696169
 23       0.000138909500
 24       0.000203833066
 25      -0.000425126022
 26      -0.000083418260
 27      -0.000310747730
 28      -0.000109070880
 29      -0.000390324823
 30       0.000480511954
 31       0.000254532838
 32       0.000305993752
 33       0.004910331658
 34       0.004025828833
 35       0.002654707095
 36       0.000411897364
 37      -0.001880272862
 38      -0.013647020527
 39      -0.000124971168
 40       0.000170613285
 41       0.000066998936
 42       0.001050871221
 43      -0.003501723465
 44      -0.000997474716
 45       0.005365983790
 46      -0.000514737160
 47      -0.001748725220
 48       0.000048485707
 49       0.000067963515
 50      -0.000051125822
 51      -0.000031504120
 52       0.000114147654
 53      -0.000173897547
 54       0.000587050362
 55      -0.000164186549
 56      -0.001112343774
 57       0.001361675174
 58       0.000188164462
 59      -0.000063012183
 60       0.000094350021
 61      -0.000033996982
 62       0.000210466451
 63       0.000055867797
 64       0.000175049212
 65       0.000123357229
 66       0.000098104924
 67       0.000073859768
 68       0.000165094404
 69       0.003287020095
 70       0.006335658135
 71       0.000016848649
 72       0.000056534725
 73      -0.000013062433
 74      -0.000597789794
 75      -0.003087515512
 76      -0.000316500671
 77      -0.002060918125
 78       0.000135555038
 79       0.000595744048
 80       0.000025819388
 81       0.000018639900
 82      -0.000015791914
 83       0.000011898031
 84      -0.000017307534
 85       0.000166669064
 86      -0.000250854453
 87      -0.000282266127
 88       0.001103954841
 89       0.000312391908
 90      -0.000024115776
 91       0.000032894305
 92       0.000049916967
 93       0.000031116201
 94       0.000015208378
 95       0.000016722553
 96       0.000016688563
 97      -0.000068252643
 98      -0.000061096843
 99      -0.000030203438
100       0.000211396287
101       0.001021778466
102      -0.003113836029
103       0.000022811024
104       0.000048964177
105       0.000003937073
106      -0.000949566660
107      -0.000506047939
108       0.000178923848
109      -0.000970613412
110      -0.000963485187
111       0.000639185315
112       0.000006029050
113       0.000009480548
114       0.000000717677
115      -0.000030337808
116      -0.000010807302
117       0.000184902888
118       0.000020085255
119       0.000111929978
120       0.000034965435
121      -0.000343060506
122      -0.000004673935
123       0.000013182623
124       0.000031045969
125       0.000015549491
126       0.000009234487
127       0.000000237678
128       0.000011367937
129      -0.000206691500
130      -0.000207732733
131      -0.000024665384
132      -0.000416840864
133      -0.000484466426
134      -0.002197369772
135      -0.000041898740
136      -0.000078093456
137      -0.000013852990
138       0.000054644646
139       0.000252939046
140       0.000363309866
141      -0.000098962279
142      -0.000379026636
143       0.000834855176
144       0.000011321517
145       0.000012567038
146       0.000023654678
147       0.000001923855
148      -0.000039346969
149       0.000009577310
150      -0.000010471464
151       0.000027682680
152      -0.000045632672
153       0.000358491027
154      -0.000001926965
155      -0.000004734266
156      -0.000006856565
157       0.000000992121
158       0.000013006092
159       0.000045515188
160       0.000001019148
161       0.000118394665
162       0.000099449799
163       0.000059959201
164       0.000174312466
165       0.002565530507
166       0.004789494115
167       0.000023226383
168       0.000006904315
169      -0.000021248806
170      -0.001159657536
171      -0.001056749705
172      -0.000096891687
173       0.000929801421
174      -0.000464692809
175       0.001135347946
176      -0.000011033457
177      -0.000033927802
178       0.000004762508
179       0.000007064937
180       0.000001116724
181       0.000330625818
182       0.000123236347
183      -0.000096908104
184      -0.000040010310
185      -0.000345915396
186      -0.000017331813
187       0.000028674988
188      -0.000009588845
189       0.000007612952
190       0.000027326704
191      -0.000004994935
192      -0.000025556396
193       0.005469190667
194       0.004506831501
195       0.002910248825
196       0.000667913219
197       0.000133271916
198      -0.011846377845
199       0.000163914132
200       0.000007407166
201       0.000115904226
202      -0.001939770179
203      -0.000781885400
204      -0.001118038317
205      -0.002320555591
206       0.001959631414
207      -0.003623813947
208      -0.000045486671
209      -0.000133642238
210       0.000008562040
211      -0.000076812903
212       0.000001205038
213      -0.000502091327
214      -0.000851151353
215      -0.000028108426
216      -0.000585439799
217       0.000595072330
218       0.000071069550
219      -0.000228898204
220       0.000048308456
221      -0.000236304442
222       0.000021584784
223       0.000066410673
224      -0.000006785717
225       0.003490203020
226       0.002830838278
227       0.001935558138
228       0.000552816458
229       0.001466774732
230      -0.010877272955
231       0.000094906871
232       0.000088000971
233      -0.000140365129
234      -0.000419648252
235      -0.000160699758
236       0.001128986437
237      -0.001607913860
238      -0.001695476854
239       0.002222172928
240      -0.000022173441
241       0.000081543529
242       0.000075928932
243       0.000021589662
244      -0.000082489813
245      -0.000183457628
246       0.000283773974
247       0.000281136220
248       0.000016958276
249      -0.000403414242
250      -0.000118544718
251      -0.000086186491
252      -0.000109594038
253      -0.000016474426
254       0.000220796494
255      -0.000121277830
256       0.000071537573
257      -0.000255985082
258      -0.000602138277
259      -0.000414192257
260       0.000267720604
261       0.000644198345
262       0.000224347565
263       0.000034121081
264      -0.000432470399
265      -0.000733709912
266       0.000100095326
267      -0.000111761521
268      -0.000050347344
269      -0.000019903169
270      -0.000135060250
271      -0.000112323770
272      -0.000001620621
273      -0.000071411360
274      -0.000003189760
275      -0.000003433087
276       0.000107348097
277      -0.000343701810
278      -0.000006405269
279       0.000016937133
280      -0.000013319257
281      -0.000023095784
282       0.000109522764
283       0.000147280092
284      -0.000004809500
285       0.000008617862
286       0.000000828244
287      -0.000036589933
288      -0.000064155958
289      -0.000251132300
290      -0.000012888490
291      -0.000000478965
292      -0.000004452182
293      -0.000001941433
294      -0.000144269625
295      -0.000105775921
296      -0.000029457796
297      -0.000019108865
298       0.000003544357
299       0.000032013320
300      -0.000371091131
301      -0.000510396664
302      -0.000096288328
303      -0.000003180470
304      -0.000087434538
305      -0.000035051381
306      -0.000217977431
307       0.000632271593
308      -0.000051365739
309      -0.000051223652
310       0.000072276789
311      -0.000018301986
312      -0.000153485044
313       0.000590522036
314      -0.000057153737
315      -0.000041416915
316       0.000055790510
 Sym=     1a
 Ene= -1.01821036288431E+01
 Spin= Alpha
 Occup= 2.000000
  1       0.000183638086
  2       0.000116461707
  3       0.000180978859
  4      -0.000498193991
  5      -0.001098612283
  6      -0.003138646804
  7       0.000054416132
  8       0.000072461234
  9      -0.000006841827
 10      -0.000118584848
 11      -0.000332646473
 12       0.000219038156
 13       0.000436619186
 14       0.000358844727
 15       0.000757374938
 16       0.000011721760
 17      -0.000024164354
 18      -0.000017854152
 19       0.000025817108
 20      -0.000034566682
 21      -0.000004002799
 22      -0.000024819829
 23       0.000054908168
 24      -0.000201366269
 25       0.000238600373
 26       0.000000484775
 27      -0.000000789004
 28       0.000008329034
 29      -0.000004520116
 30       0.000023250425
 31      -0.000020840050
 32       0.000032780039
 33      -0.000031977592
 34      -0.000026652921
 35      -0.000019797059
 36       0.000207023318
 37       0.001281494270
 38      -0.001498524827
 39      -0.000053855450
 40       0.000000639775
 41       0.000005747240
 42       0.000558251237
 43       0.000724772145
 44       0.000026985017
 45       0.000159960309
 46       0.000950805980
 47       0.000236229536
 48       0.000001585446
 49       0.000001150425
 50      -0.000003831893
 51       0.000035614935
 52       0.000008287200
 53       0.000235984619
 54       0.000038302193
 55       0.000040632322
 56      -0.000110936543
 57      -0.000302359741
 58       0.000009944071
 59      -0.000024632175
 60      -0.000010556083
 61      -0.000002351866
 62      -0.000001075270
 63       0.000004987690
 64      -0.000002193038
 65       0.000121488931
 66       0.000108050529
 67       0.000049065977
 68       0.000049464650
 69       0.000062296265
 70       0.003604884507
 71      -0.000020650374
 72      -0.000019075958
 73      -0.000020157588
 74       0.000710351829
 75       0.000742525699
 76      -0.000005428140
 77       0.000033750416
 78       0.000638938367
 79       0.000094240967
 80       0.000009056109
 81       0.000027384428
 82      -0.000009250084
 83      -0.000010310440
 84       0.000001569541
 85      -0.000062808890
 86      -0.000039957296
 87       0.000250149177
 88      -0.000479463222
 89      -0.000320047568
 90      -0.000021436692
 91      -0.000005369163
 92      -0.000025775289
 93      -0.000022791299
 94      -0.000012162951
 95      -0.000033130678
 96       0.000027438369
 97       0.011467629373
 98       0.009486078525
 99       0.006052823044
100       0.000658496452
101      -0.000070464491
102      -0.011556601839
103      -0.000124992449
104       0.000116599910
105       0.000054200501
106       0.001048841801
107      -0.000515455101
108      -0.000414239091
109       0.001861205112
110      -0.002768759080
111      -0.001022493942
112       0.000054294600
113       0.000057829364
114      -0.000044186025
115      -0.000022971480
116       0.000100788416
117       0.000154305813
118       0.000170565111
119      -0.000277027020
120       0.000172113962
121       0.000775218949
122       0.000162606229
123      -0.000119359313
124       0.000020972486
125      -0.000054000154
126       0.000156106352
127       0.000150357998
128       0.000152743086
129       0.468194172711
130       0.391288394847
131       0.240095705824
132       0.024643161902
133       0.013164797509
134       0.036564635613
135       0.000206115746
136       0.000100199395
137      -0.000134504702
138      -0.000729456785
139       0.000167644675
140      -0.000268914153
141       0.005815530322
142       0.004253678199
143      -0.003207855123
144      -0.000067218768
145      -0.000072714113
146      -0.000080044930
147      -0.000009461827
148       0.000106154902
149       0.000063238524
150      -0.000014634901
151      -0.000310656738
152      -0.000050100473
153       0.000010644531
154      -0.000150911946
155      -0.000027641953
156       0.000300467764
157       0.000127938668
158       0.000600111973
159       0.000054113407
160       0.000331687923
161       0.004802676624
162       0.003946256536
163       0.002577899930
164       0.000633944242
165       0.000232667662
166      -0.011761032358
167       0.000050385067
168      -0.000151565532
169       0.000110379077
170       0.000060062297
171       0.001928066914
172      -0.001203390971
173      -0.002309112090
174       0.002076377699
175      -0.003513851643
176      -0.000063323027
177      -0.000050070200
178       0.000131366226
179       0.000057118280
180       0.000036017528
181      -0.000508367675
182      -0.000351209489
183       0.000759207942
184       0.000119971090
185       0.000790062621
186       0.000058771180
187      -0.000126311230
188       0.000222209902
189       0.000164378792
190       0.000150678268
191      -0.000052385642
192       0.000022437733
193       0.000174569847
194       0.000141861487
195       0.000098397101
196       0.000122925386
197       0.002176780698
198       0.003882344329
199       0.000004454434
200      -0.000021572083
201      -0.000019407114
202       0.000575671197
203       0.001243240227
204      -0.000167440656
205       0.000784636531
206      -0.000458702908
207       0.001050449797
208      -0.000017489134
209      -0.000015731988
210       0.000023745759
211      -0.000005007985
212       0.000000063106
213       0.000323928202
214       0.000117020476
215      -0.000035065862
216       0.000156187253
217      -0.000226355645
218      -0.000006257943
219       0.000014307906
220      -0.000026057868
221      -0.000023862585
222       0.000021836425
223      -0.000012117501
224      -0.000025060131
225       0.004078084112
226       0.003320490851
227       0.002240731367
228       0.000556602127
229       0.001343500821
230      -0.009847759687
231      -0.000056300401
232      -0.000115538575
233      -0.000139415768
234       0.000046680012
235       0.000533878295
236       0.001173630501
237       0.001108404406
238       0.002304791836
239       0.001839629829
240      -0.000010237680
241      -0.000054435429
242      -0.000094958015
243       0.000020557793
244      -0.000083557672
245      -0.000219553998
246      -0.000209645207
247      -0.000368724536
248       0.000195950067
249      -0.000436114087
250      -0.000126544952
251       0.000066638755
252       0.000093488941
253      -0.000092225019
254       0.000201527204
255       0.000153598423
256      -0.000046496157
257      -0.000039848188
258      -0.000052544804
259      -0.000160790902
260       0.000003890930
261       0.000011804223
262      -0.000011577086
263       0.000008748183
264       0.000128968568
265      -0.000133804833
266       0.000005473936
267      -0.000002419583
268      -0.000001196999
269      -0.000010180218
270      -0.000319180585
271      -0.000424697039
272       0.000063269744
273      -0.000001614835
274      -0.000015014090
275      -0.000045436128
276       0.000023970847
277       0.000452684439
278       0.000062281709
279      -0.000048368615
280      -0.000045363859
281      -0.000033168175
282      -0.000149253290
283       0.000473211811
284       0.000084083379
285      -0.000059536934
286      -0.000038306161
287      -0.000268309640
288      -0.000921400217
289      -0.000891917065
290      -0.000576166080
291      -0.000413102461
292       0.000289301043
293       0.000020730820
294      -0.000230390618
295      -0.000311989611
296      -0.000016860268
297       0.000084975973
298      -0.000074534672
299      -0.000003179140
300      -0.000137207124
301      -0.000123431157
302       0.000011683411
303       0.000029798945
304       0.000001089988
305      -0.000040592809
306      -0.000326106511
307       0.000446348323
308       0.000029283301
309       0.000069081332
310       0.000086140284
311      -0.000026058930
312      -0.000128737502
313       0.000660276759
314       0.000025706984
315       0.000075495814
316       0.000057631201
 Sym=     1a
 Ene= -1.01779676692894E+01
 Spin= Alpha
 Occup= 2.000000
  1      -0.000054371371
  2      -0.000043177699
  3      -0.000028075001
  4      -0.000262858569
  5      -0.001623237341
  6       0.000213592030
  7      -0.000004084270
  8       0.000028116878
  9      -0.000014087165
 10       0.000734191616
 11      -0.000751248135
 12      -0.000135537736
 13       0.000819723257
 14       0.000245567510
 15       0.000061023199
 16      -0.000009451527
 17      -0.000012431407
 18       0.000015118467
 19      -0.000001873383
 20      -0.000013262053
 21      -0.000147711180
 22      -0.000246808557
 23      -0.000026782219
 24       0.000056055818
 25      -0.000293071832
 26       0.000026821507
 27      -0.000000613835
 28       0.000016609422
 29      -0.000008034251
 30       0.000029223032
 31      -0.000019163760
 32       0.000021745264
 33      -0.000847027643
 34      -0.000689515762
 35      -0.000473893827
 36      -0.000098510188
 37      -0.003253712181
 38      -0.004670185111
 39      -0.000014665525
 40       0.000044667507
 41       0.000020186539
 42      -0.000300923212
 43      -0.002965747911
 44      -0.000534051479
 45       0.002711497482
 46       0.000340546845
 47      -0.000990587988
 48      -0.000033966176
 49      -0.000026016915
 50       0.000012384598
 51      -0.000002737415
 52       0.000001058270
 53      -0.000211027316
 54       0.000430948912
 55      -0.000077545046
 56      -0.000848957578
 57       0.000788975619
 58       0.000043905928
 59      -0.000009112879
 60       0.000034206616
 61      -0.000011990564
 62       0.000045106714
 63      -0.000001175021
 64       0.000008435961
 65      -0.012232601212