[Molden Format]
[Title]
 Molden file created by orca_2mkl for BaseName=Si2H4

[Atoms] AU
Si   1  14         -6.4572829498         3.5726767925        -0.6012079473 
Si   2  14         -2.5720873056         3.2666395188         0.6013106386 
H    3   1         -7.6750521510         1.4312847071        -1.9256993458 
H    4   1         -8.2618257148         5.0864219378         0.9073903754 
H    5   1         -0.7677213284         1.7521876204        -0.9067889733 
H    6   1         -1.3540830498         5.4083964361         1.9249952523 
[GTO]
  1 0
s  13 1.0 
   254900.0000000000         0.5053428829
    38190.0000000000         0.9452734694
     8690.0000000000         1.6324448003
     2462.0000000000         2.6368238850
      804.8000000000         3.9710025195
      291.3000000000         5.4005446853
      113.6000000000         6.1479725854
       46.7500000000         4.9807008900
       19.8200000000         2.0217648975
        7.7080000000         0.1843571491
        3.3400000000        -0.0070848862
        1.4020000000         0.0023691349
        0.2070000000         0.0001329505
s  13 1.0 
   254900.0000000000        -0.1389574190
    38190.0000000000        -0.2600900279
     8690.0000000000        -0.4498357068
     2462.0000000000        -0.7311266297
      804.8000000000        -1.1186177738
      291.3000000000        -1.5873959345
      113.6000000000        -1.9912563670
       46.7500000000        -2.0302583750
       19.8200000000        -1.2474311161
        7.7080000000         0.2718674052
        3.3400000000         0.9958100755
        1.4020000000         0.4554484714
        0.2070000000        -0.0024175454
s  13 1.0 
   254900.0000000000         0.0558645623
    38190.0000000000         0.1044854990
     8690.0000000000         0.1809405729
     2462.0000000000         0.2937836690
      804.8000000000         0.4509519882
      291.3000000000         0.6405571845
      113.6000000000         0.8126483891
       46.7500000000         0.8413106553
       19.8200000000         0.5419062905
        7.7080000000        -0.1332846715
        3.3400000000        -0.5433093439
        1.4020000000        -0.4738602806
        0.2070000000         0.2415038676
s   1 1.0 
        0.4387000000         0.3841809428
s   1 1.0 
        0.0794400000         0.1066447594
p   7 1.0 
      481.5000000000         6.7013345216
      113.9000000000         8.8394055881
       36.2300000000         9.8184082016
       13.3400000000         8.4031735179
        5.2520000000         4.8015058216
        2.1200000000         1.5581933073
        0.2528000000         0.0010971689
p   7 1.0 
      481.5000000000        -2.3564484873
      113.9000000000        -3.2224130009
       36.2300000000        -3.5030875112
       13.3400000000        -3.2156511535
        5.2520000000        -1.7526604592
        2.1200000000        -0.7395890511
        0.2528000000         0.2550752940
p   1 1.0 
        0.8561000000         1.1738043353
p   1 1.0 
        0.0788900000         0.0595960578
d   1 1.0 
        0.1590000000         0.1141340034
d   1 1.0 
        0.4810000000         0.7919977854
f   1 1.0 
        0.3360000000         0.4900760210

  2 0
s  13 1.0 
   254900.0000000000         0.5053428829
    38190.0000000000         0.9452734694
     8690.0000000000         1.6324448003
     2462.0000000000         2.6368238850
      804.8000000000         3.9710025195
      291.3000000000         5.4005446853
      113.6000000000         6.1479725854
       46.7500000000         4.9807008900
       19.8200000000         2.0217648975
        7.7080000000         0.1843571491
        3.3400000000        -0.0070848862
        1.4020000000         0.0023691349
        0.2070000000         0.0001329505
s  13 1.0 
   254900.0000000000        -0.1389574190
    38190.0000000000        -0.2600900279
     8690.0000000000        -0.4498357068
     2462.0000000000        -0.7311266297
      804.8000000000        -1.1186177738
      291.3000000000        -1.5873959345
      113.6000000000        -1.9912563670
       46.7500000000        -2.0302583750
       19.8200000000        -1.2474311161
        7.7080000000         0.2718674052
        3.3400000000         0.9958100755
        1.4020000000         0.4554484714
        0.2070000000        -0.0024175454
s  13 1.0 
   254900.0000000000         0.0558645623
    38190.0000000000         0.1044854990
     8690.0000000000         0.1809405729
     2462.0000000000         0.2937836690
      804.8000000000         0.4509519882
      291.3000000000         0.6405571845
      113.6000000000         0.8126483891
       46.7500000000         0.8413106553
       19.8200000000         0.5419062905
        7.7080000000        -0.1332846715
        3.3400000000        -0.5433093439
        1.4020000000        -0.4738602806
        0.2070000000         0.2415038676
s   1 1.0 
        0.4387000000         0.3841809428
s   1 1.0 
        0.0794400000         0.1066447594
p   7 1.0 
      481.5000000000         6.7013345216
      113.9000000000         8.8394055881
       36.2300000000         9.8184082016
       13.3400000000         8.4031735179
        5.2520000000         4.8015058216
        2.1200000000         1.5581933073
        0.2528000000         0.0010971689
p   7 1.0 
      481.5000000000        -2.3564484873
      113.9000000000        -3.2224130009
       36.2300000000        -3.5030875112
       13.3400000000        -3.2156511535
        5.2520000000        -1.7526604592
        2.1200000000        -0.7395890511
        0.2528000000         0.2550752940
p   1 1.0 
        0.8561000000         1.1738043353
p   1 1.0 
        0.0788900000         0.0595960578
d   1 1.0 
        0.1590000000         0.1141340034
d   1 1.0 
        0.4810000000         0.7919977854
f   1 1.0 
        0.3360000000         0.4900760210

  3 0
s   3 1.0 
       33.8700000000         0.2551080577
        5.0950000000         0.4600978881
        1.1590000000         0.6784140671
s   1 1.0 
        0.3258000000         0.3073430538
s   1 1.0 
        0.1027000000         0.1292968442
p   1 1.0 
        1.4070000000         2.1842769845
p   1 1.0 
        0.3880000000         0.4364954740
d   1 1.0 
        1.0570000000         3.1412413909

  4 0
s   3 1.0 
       33.8700000000         0.2551080577
        5.0950000000         0.4600978881
        1.1590000000         0.6784140671
s   1 1.0 
        0.3258000000         0.3073430538
s   1 1.0 
        0.1027000000         0.1292968442
p   1 1.0 
        1.4070000000         2.1842769845
p   1 1.0 
        0.3880000000         0.4364954740
d   1 1.0 
        1.0570000000         3.1412413909

  5 0
s   3 1.0 
       33.8700000000         0.2551080577
        5.0950000000         0.4600978881
        1.1590000000         0.6784140671
s   1 1.0 
        0.3258000000         0.3073430538
s   1 1.0 
        0.1027000000         0.1292968442
p   1 1.0 
        1.4070000000         2.1842769845
p   1 1.0 
        0.3880000000         0.4364954740
d   1 1.0 
        1.0570000000         3.1412413909

  6 0
s   3 1.0 
       33.8700000000         0.2551080577
        5.0950000000         0.4600978881
        1.1590000000         0.6784140671
s   1 1.0 
        0.3258000000         0.3073430538
s   1 1.0 
        0.1027000000         0.1292968442
p   1 1.0 
        1.4070000000         2.1842769845
p   1 1.0 
        0.3880000000         0.4364954740
d   1 1.0 
        1.0570000000         3.1412413909

[5D]
[7F]
[9G]
[MO]
 Sym=     1a
 Ene= -6.60068758505535E+01
 Spin= Alpha
 Occup= 2.000000
  1      -0.245166617415
  2      -0.001641198248
  3      -0.002091090386
  4       0.001490685755
  5       0.000267858169
  6      -0.000158731301
  7       0.000066655357
  8      -0.000117640554
  9      -0.000356383175
 10       0.000151191940
 11      -0.000265916209
 12       0.000101796694
 13      -0.000028464238
 14       0.000057402789
 15      -0.000051306588
 16       0.000025146646
 17      -0.000040499517
 18       0.000204233632
 19      -0.000232814478
 20      -0.000194434775
 21      -0.000316014908
 22       0.000104042246
 23       0.000094047950
 24      -0.000066920153
 25      -0.000104457237
 26      -0.000127400439
 27       0.000024139049
 28       0.000101309429
 29       0.000100254675
 30       0.000027591514
 31      -0.000176007428
 32       0.000199877090
 33       0.000269100093
 34       0.000007151271
 35       0.970371568084
 36       0.004390176584
 37       0.005424323080
 38      -0.004480557124
 39      -0.000719446904
 40       0.000177672588
 41       0.000154437148
 42      -0.000161684798
 43       0.000443282122
 44       0.000343539941
 45      -0.000349141246
 46      -0.000004327912
 47      -0.000066033942
 48       0.000084490286
 49       0.000229249619
 50       0.000001107124
 51       0.000052993556
 52      -0.000223718259
 53      -0.000020852159
 54       0.000645741799
 55       0.000054495668
 56      -0.000042511572
 57      -0.000163992852
 58       0.000023117733
 59       0.000414519335
 60       0.000081938746
 61      -0.000044173896
 62       0.000069451135
 63       0.000179831079
 64      -0.000024253919
 65      -0.000299535470
 66       0.000556686207
 67       0.000485679408
 68       0.000150874874
 69      -0.000026280000
 70       0.000493359954
 71      -0.000001190264
 72       0.000008208632
 73      -0.000008986174
 74       0.000005884728
 75       0.000092561006
 76       0.000233770192
 77       0.000087421766
 78      -0.000003880363
 79       0.000007244388
 80       0.000006997996
 81      -0.000013146680
 82       0.000023683182
 83      -0.000026045408
 84       0.000490555191
 85      -0.000004268338
 86       0.000007241723
 87      -0.000002056473
 88       0.000011483151
 89       0.000147779815
 90      -0.000117511970
 91      -0.000185688252
 92       0.000003207666
 93      -0.000024359374
 94       0.000004108196
 95       0.000003644778
 96      -0.000014323648
 97       0.000126208210
 98      -0.001663725976
 99      -0.000069855917
100      -0.000007856383
101       0.000003843751
102       0.000015461925
103       0.000582983686
104      -0.000426498710
105      -0.000469526352
106       0.000006887572
107       0.000060333925
108      -0.000017497893
109      -0.000010236971
110       0.000057034749
111       0.000126757386
112      -0.001669400838
113      -0.000076113825
114      -0.000004665970
115      -0.000017311038
116      -0.000000802434
117       0.000409823430
118       0.000662099205
119       0.000373534527
120       0.000002362629
121      -0.000035675067
122      -0.000034112881
123       0.000027087981
124      -0.000064774495
 Sym=     1a
 Ene= -6.60068653620784E+01
 Spin= Alpha
 Occup= 2.000000
  1       0.970329467229
  2       0.004102919384
  3       0.005035243327
  4      -0.004286833366
  5      -0.000672988023
  6      -0.000287506693
  7      -0.000139622208
  8       0.000120159885
  9      -0.000695921616
 10      -0.000309023320
 11       0.000253036145
 12       0.000059838972
 13       0.000059711282
 14      -0.000065001263
 15      -0.000288185039
 16       0.000012364605
 17      -0.000082022472
 18      -0.000143502739
 19      -0.000149264289
 20       0.000628994438
 21      -0.000108343736
 22       0.000007989106
 23      -0.000135305198
 24      -0.000009869321
 25       0.000414726367
 26       0.000024540562
 27      -0.000037148387
 28      -0.000024202486
 29      -0.000150572852
 30       0.000042269111
 31       0.000245625635
 32      -0.000524751998
 33      -0.000406351465
 34      -0.000167581906
 35       0.244999927184
 36       0.000503849153
 37       0.000550599409
 38      -0.000723681310
 39      -0.000083855173
 40       0.000276181423
 41       0.000007781833
 42       0.000046586828
 43       0.000644009545
 44       0.000014028516
 45       0.000114143546
 46      -0.000117997300
 47      -0.000003348962
 48      -0.000019687193
 49       0.000181959371
 50      -0.000027925230
 51       0.000074641492
 52       0.000111453401
 53      -0.000275515249
 54       0.000127533956
 55      -0.000329745764
 56       0.000095636296
 57       0.000018477447
 58      -0.000063501578
 59       0.000104978493
 60      -0.000100511904
 61       0.000003693963
 62      -0.000077737600
 63      -0.000016828812
 64      -0.000044381405
 65       0.000038313221
 66       0.000073236530
 67      -0.000043781500
 68       0.000073225018
 69       0.000129869224
 70      -0.001630835063
 71      -0.000087108401
 72       0.000009729088
 73       0.000014820320
 74       0.000004099742
 75      -0.000415640185
 76      -0.000626130786
 77      -0.000377575802
 78       0.000000563244
 79      -0.000036646983
 80      -0.000035011717
 81       0.000023695774
 82      -0.000060803029
 83       0.000129331197
 84      -0.001625600369
 85      -0.000081687901
 86       0.000012842008
 87      -0.000005462526
 88      -0.000011363431
 89      -0.000582738358
 90       0.000420915777
 91       0.000433414980
 92       0.000009545512
 93       0.000055422267
 94      -0.000017655036
 95      -0.000009686437
 96       0.000057042966
 97       0.000038416061
 98      -0.000339657563
 99      -0.000042424799
100      -0.000012480976
101       0.000004366828
102      -0.000004721850
103       0.000146526708
104      -0.000096294532
105      -0.000042227424
106       0.000007348823
107       0.000004820739
108      -0.000004756067
109      -0.000001380915
110       0.000014445940
111       0.000038602871
112      -0.000340638626
113      -0.000042489398
114      -0.000011855260
115       0.000000886013
116      -0.000007162314
117       0.000115960798
118       0.000091726640
119       0.000102458944
120      -0.000003142762
121      -0.000011020230
122      -0.000010496865
123      -0.000000292798
124      -0.000008044306
 Sym=     1a
 Ene= -5.22618813876137E+00
 Spin= Alpha
 Occup= 2.000000
  1      -0.002449723877
  2       0.656879624417
  3      -0.011121638396
  4       0.050896833631
  5       0.003816411614
  6       0.000012639580
  7      -0.000061672838
  8       0.000075608485
  9       0.001974986188
 10       0.000429567577
 11      -0.000145502079
 12      -0.000432895596
 13      -0.000138446660
 14       0.000091973763
 15       0.000282031401
 16      -0.000144730079
 17       0.000297383187
 18      -0.000019139357
 19       0.000549477528
 20      -0.000873129104
 21       0.000615995333
 22      -0.000164053105
 23       0.000174882071
 24       0.000196599860
 25      -0.000736817689
 26       0.000124791674
 27      -0.000018569556
 28      -0.000070312061
 29       0.000165674679
 30      -0.000090132870
 31      -0.000248787405
 32       0.000733834796
 33       0.000448859209
 34       0.000299757410
 35      -0.002536313397
 36       0.678225061623
 37      -0.011551974941
 38       0.052575971838
 39       0.004087894526
 40       0.000005324395
 41       0.000061809227
 42      -0.000072034888
 43      -0.002001004326
 44      -0.000447513790
 45       0.000161960733
 46       0.000443663621
 47       0.000143280929
 48      -0.000095801366
 49      -0.000341972243
 50       0.000150573512
 51      -0.000319532052
 52      -0.000012566503
 53       0.000549771809
 54      -0.000899761345
 55       0.000620801661
 56      -0.000161228571
 57       0.000184664744
 58       0.000198689656
 59      -0.000758894697
 60       0.000120842004
 61      -0.000018908872
 62       0.000068450624
 63      -0.000171333096
 64       0.000090156690
 65       0.000259666679
 66      -0.000758453073
 67      -0.000468264881
 68      -0.000306460562
 69      -0.000093746727
 70       0.002860738901
 71      -0.000507390730
 72       0.000012140055
 73       0.000030785580
 74       0.000023536276
 75       0.000629125678
 76       0.000924598678
 77       0.000593470007
 78       0.000000063856
 79       0.000067126045
 80       0.000089329024
 81      -0.000053406408
 82       0.000104908730
 83      -0.000090147469
 84       0.002824694204
 85      -0.000544377348
 86       0.000021575025
 87      -0.000026002681
 88      -0.000023235040
 89       0.000879190723
 90      -0.000653048725
 91      -0.000619869695
 92      -0.000019733111
 93      -0.000101307140
 94       0.000057719442
 95       0.000006198229
 96      -0.000111605302
 97      -0.000092458134
 98       0.002910818484
 99      -0.000564042116
100      -0.000022274094
101       0.000026872548
102       0.000023200328
103      -0.000907127882
104       0.000673573166
105       0.000643610520
106      -0.000020213220
107      -0.000104568110
108       0.000059798848
109       0.000007090739
110      -0.000115194284
111      -0.000096226403
112       0.002949226859
113      -0.000525058161
114      -0.000012675244
115      -0.000031130844
116      -0.000024303466
117      -0.000649074521
118      -0.000958320330
119      -0.000611268793
120      -0.000000697684
121       0.000069763466
122       0.000092145779
123      -0.000055038194
124       0.000108392994
 Sym=     1a
 Ene= -5.22594682548587E+00
 Spin= Alpha
 Occup= 2.000000
  1      -0.002742482291
  2       0.676856353070
  3      -0.013614559416
  4       0.053231835735
  5       0.008547839275
  6      -0.000557979987
  7      -0.000007652356
  8      -0.000099016851
  9       0.000845450564
 10       0.000561494783
 11      -0.000518228863
 12      -0.000343449669
 13      -0.000152470282
 14       0.000122612289
 15       0.001882259282
 16      -0.000189669897
 17       0.000694640899
 18       0.000180202750
 19       0.000029885039
 20      -0.000851896489
 21       0.000144965559
 22       0.000093778577
 23       0.000293552257
 24       0.000071845126
 25      -0.000706643348
 26      -0.000131125800
 27      -0.000009268707
 28       0.000058693962
 29       0.000195063393
 30       0.000006340979
 31      -0.000354468851
 32       0.000784526729
 33       0.000598147621
 34       0.000216202958
 35       0.002662608443
 36      -0.655466325265
 37       0.013251399133
 38      -0.051574152256
 39      -0.008421173622
 40      -0.000558107427
 41      -0.000005822437
 42      -0.000101894197
 43       0.000781860367
 44       0.000547094107
 45      -0.000513606453
 46      -0.000329415704
 47      -0.000147885287
 48       0.000119613493
 49       0.001872205784
 50      -0.000184789647
 51       0.000684887928
 52      -0.000181217587
 53      -0.000012478829
 54       0.000823303861
 55      -0.000125277382
 56      -0.000099388592
 57      -0.000288257224
 58      -0.000065446141
 59       0.000682591372
 60       0.000134749909
 61       0.000008647510
 62       0.000061008742
 63       0.000189310941
 64       0.000009043715
 65      -0.000346073646
 66       0.000760625563
 67       0.000583819734
 68       0.000206421415
 69      -0.000075627471
 70       0.002792976869
 71      -0.000562349546
 72       0.000016121632
 73       0.000011122877
 74       0.000028397081
 75       0.000629346537
 76       0.001059865792
 77       0.000567771258
 78      -0.000023566390
 79       0.000077522416
 80       0.000092486096
 81      -0.000049977210
 82       0.000112616635
 83      -0.000072055248
 84       0.002748702994
 85      -0.000619030116
 86       0.000023990839
 87      -0.000026903429
 88      -0.000000687807
 89       0.000891290047
 90      -0.000647701038
 91      -0.000759061770
 92      -0.000015600153
 93      -0.000105776799
 94       0.000066357370
 95       0.000030433623
 96      -0.000114852197
 97       0.000069077433
 98      -0.002657121485
 99       0.000601282035
100       0.000023347722
101      -0.000026066762
102       0.000000065334
103       0.000862565251
104      -0.000626885659
105      -0.000738682132
106       0.000015036977
107       0.000102449372
108      -0.000064491832
109      -0.000030207131
110       0.000111311568
111       0.000072509446
112      -0.002699586838
113       0.000545772075
114       0.000015705591
115       0.000010144614
116       0.000027727909
117       0.000609033087
118       0.001029844089
119       0.000547920098
120       0.000023675586
121      -0.000075090332
122      -0.000089638806
123       0.000048210633
124      -0.000109358301
 Sym=     1a
 Ene= -3.57706870256576E+00
 Spin= Alpha
 Occup= 2.000000
  1      -0.000039244228
  2      -0.000023735731
  3      -0.000485415967
  4       0.000257079551
  5       0.000291453611
  6      -0.087792153509
  7       0.365328642881
  8      -0.488832730615
  9      -0.000161054432
 10       0.003006953453
 11      -0.003893389556
 12      -0.013045778276
 13       0.053227542565
 14      -0.071274307376
 15       0.000430284775
 16      -0.000720975058
 17       0.001050823644
 18      -0.000398559322
 19      -0.000661415250
 20       0.000171600086
 21       0.000366173702
 22       0.000591793540
 23       0.000090762671
 24       0.000156887157
 25      -0.000128353367
 26      -0.000034498711
 27      -0.000119770670
 28       0.000238896143
 29      -0.000241004591
 30      -0.000149062344
 31      -0.000476509890
 32       0.000356754144
 33       0.000031929078
 34      -0.000323358955
 35      -0.000061266557
 36      -0.000160531953
 37      -0.000691451890
 38       0.000383882592
 39      -0.000554078875
 40       0.091272380643
 41      -0.406741864193
 42       0.543342879156
 43       0.000379041593
 44      -0.003340440425
 45       0.004371753651
 46       0.013513530963
 47      -0.059268760478
 48       0.079217664371
 49      -0.000042161429
 50       0.000768212827
 51      -0.001030877899
 52      -0.000292374410
 53      -0.000758687960
 54       0.000134693818
 55       0.000177544655
 56       0.000611743243
 57       0.000102774411
 58       0.000159553499
 59      -0.000140730392
 60      -0.000046848577
 61      -0.000124483790
 62      -0.000261141810
 63       0.000216513023
 64       0.000167335546
 65       0.000528185278
 66      -0.000391303574
 67      -0.000089432031
 68       0.000326473734
 69      -0.000010100260
 70       0.000318537689
 71      -0.000032492693
 72      -0.000019704152
 73       0.000054033119
 74      -0.000043685036
 75       0.000128710682
 76       0.000060771033
 77       0.000193392742
 78       0.000011350556
 79      -0.000002367130
 80       0.000036174167
 81      -0.000024257545
 82       0.000012075901
 83      -0.000006916705
 84       0.000286585575
 85      -0.000064000625
 86      -0.000014603883
 87       0.000024819678
 88      -0.000066890703
 89       0.000159473304
 90      -0.000167268659
 91       0.000021489971
 92      -0.000004757750
 93      -0.000021330553
 94       0.000027828386
 95      -0.000025028676
 96      -0.000016702462
 97      -0.000017307665
 98       0.000374970473
 99      -0.000036887945
100       0.000015173055
101      -0.000033705316
102       0.000071045796
103      -0.000176676591
104       0.000210702874
105      -0.000013615098
106      -0.000006994736
107      -0.000021590334
108       0.000027457396
109      -0.000025176057
110      -0.000016997439
111      -0.000020620215
112       0.000407475068
113      -0.000007008666
114       0.000019206641
115      -0.000055945314
116       0.000053318383
117      -0.000135585926
118      -0.000081662686
119      -0.000235373923
120       0.000012548329
121      -0.000002275700
122       0.000037137738
123      -0.000022767186
124       0.000012691094
 Sym=     1a
 Ene= -3.57699362470866E+00
 Spin= Alpha
 Occup= 2.000000
  1       0.000211154053
  2       0.001295295002
  3       0.001981646758
  4      -0.001218485389
  5       0.008019276524
  6       0.037497243138
  7      -0.415635530238
  8       0.543237215339
  9       0.002076602785
 10      -0.003353955297
 11       0.004741862617
 12       0.005104211033
 13      -0.060627636280
 14       0.079164472233
 15       0.003664857583
 16       0.000488187484
 17       0.000131999210
 18      -0.000987256058
 19       0.000962029151
 20       0.000343519326
 21       0.001771197608
 22      -0.000215302233
 23      -0.000118268952
 24      -0.000033983021
 25       0.000123887710
 26       0.000119782321
 27       0.000051436016
 28      -0.000221742796
 29      -0.000220883535
 30       0.000180426338
 31       0.000517742413
 32      -0.000347305026
 33      -0.000547140253
 34       0.000047489779
 35      -0.000205840742
 36      -0.001285663494
 37      -0.001919419243
 38       0.001184630858
 39      -0.008005437277
 40       0.027953388294
 41      -0.374800939822
 42       0.489045081277
 43       0.002047306596
 44      -0.003018521971
 45       0.004307750365
 46       0.003688969176
 47      -0.054677651830
 48       0.071263283244
 49       0.003690086422
 50       0.000408793715
 51       0.000240832258
 52       0.001023569619
 53      -0.000888108542
 54      -0.000359769242
 55      -0.001799488910
 56       0.000150885766
 57       0.000108119310
 58       0.000017255205
 59      -0.000109598550
 60      -0.000115495670
 61      -0.000038640897
 62      -0.000195442034
 63      -0.000244572138
 64       0.000163757156
 65       0.000464843214
 66      -0.000307743224
 67      -0.000540817581
 68       0.000013072042
 69       0.000101823856
 70      -0.000868784043
 71      -0.000245412389
 72      -0.000004175908
 73      -0.000020327958
 74       0.000094743307
 75      -0.000071747469
 76      -0.000203228340
 77      -0.000411025036
 78      -0.000012175698
 79       0.000000628569
 80      -0.000010002897
 81      -0.000012780923
 82      -0.000006922863
 83       0.000098902854
 84      -0.000849487658
 85      -0.000250394125
 86       0.000006596937
 87      -0.000086303245
 88       0.000043483295
 89      -0.000170867044
 90       0.000421234143
 91       0.000072174604
 92       0.000020737164
 93       0.000001958627
 94       0.000001734692
 95       0.000003858041
 96       0.000003358715
 97      -0.000097643477
 98       0.000813840225
 99       0.000255040144
100       0.000005112905
101      -0.000083250510
102       0.000036303600
103      -0.000152973651
104       0.000401280392
105       0.000073583375
106      -0.000020039110
107       0.000000516694
108      -0.000004646942
109      -0.000001353705
110      -0.000001530685
111      -0.000100310523
112       0.000831164027
113       0.000248141627
114      -0.000006293663
115      -0.000014413011
116       0.000089738411
117      -0.000057785522
118      -0.000196124046
119      -0.000388431493
120       0.000010903064
121      -0.000000532388
122       0.000006034025
123       0.000015230163
124       0.000005674295
 Sym=     1a
 Ene= -3.57147666508716E+00
 Spin= Alpha
 Occup= 2.000000
  1       0.000231927894
  2       0.000982360557
  3       0.002438492170
  4      -0.000531734498
  5       0.000823845730
  6      -0.638716783737
  7      -0.116423507938
  8       0.024996300600
  9      -0.006629145517
 10      -0.001322358266
 11       0.000405207171
 12      -0.092668766938
 13      -0.016779050664
 14       0.003481439994
 15       0.001119265505
 16       0.000134271638
 17      -0.000070723169
 18       0.000035479310
 19      -0.000114834824
 20       0.000875338563
 21      -0.000539094470
 22      -0.000190099269
 23      -0.000079962768
 24      -0.000253109514
 25       0.000401817938
 26      -0.000125006018
 27       0.000097018713
 28       0.000241442252
 29       0.000255944708
 30       0.000108356468
 31       0.000001112977
 32      -0.000702459171
 33       0.000162853365
 34      -0.000238627932
 35       0.000230981128
 36       0.000969380163
 37       0.002434137102
 38      -0.000522739508
 39       0.000727282888
 40       0.645286288871
 41       0.101125442034
 42      -0.036998896334
 43       0.006763450413
 44       0.001033247325
 45      -0.000617866897
 46       0.093606072722
 47       0.014583343145
 48      -0.005207107573
 49      -0.001055335187
 50      -0.000183120148
 51       0.000054804863
 52       0.000061576623
 53      -0.000227741818
 54       0.000877455442
 55      -0.000526575720
 56      -0.000299454258
 57      -0.000074993732
 58      -0.000279911406
 59       0.000402272467
 60      -0.000115807771
 61       0.000068844771
 62      -0.000204991434
 63      -0.000248332129
 64      -0.000117164772
 65       0.000011452950
 66       0.000713777597
 67      -0.000183239924
 68       0.000261422220
 69       0.000592530697
 70      -0.001924445666
 71      -0.000549611461
 72       0.000096086487
 73       0.000220569973
 74       0.000160946702
 75      -0.000462279826
 76      -0.000771573146
 77      -0.000566961040
 78       0.000007713619
 79       0.000001483741
 80       0.000020983781
 81      -0.000049792701
 82       0.000080204519
 83       0.000603393411
 84      -0.001942843698
 85      -0.000471234433
 86       0.000165656203
 87      -0.000185720210
 88      -0.000156290672
 89      -0.000689385310
 90       0.000628054770
 91       0.000534268630
 92       0.000002392784
 93      -0.000090426079
 94       0.000003912462
 95      -0.000012444238
 96      -0.000036008467
 97       0.000642421951
 98      -0.002145964019
 99      -0.000550997061
100      -0.000174239534
101       0.000193749469
102       0.000163960369
103       0.000744356325
104      -0.000683995922
105      -0.000583617745
106       0.000002897789
107      -0.000090050137
108       0.000002736094
109      -0.000011229159
110      -0.000035138688
111       0.000561375843
112      -0.001755924782
113      -0.000482020107
114      -0.000091737329
115      -0.000212299643
116      -0.000155447060
117       0.000438174236
118       0.000712898306
119       0.000526097474
120       0.000008650302
121       0.000001594569
122       0.000022393295
123      -0.000050082214
124       0.000080533969
 Sym=     1a
 Ene= -3.57145844142626E+00
 Spin= Alpha
 Occup= 2.000000
  1       0.000002162111
  2       0.000003889569
  3       0.000024089051
  4       0.000001270140
  5      -0.000090074332
  6      -0.092630908661
  7       0.496734062958
  8       0.387541946973